                  Welcome to Q-Chem
     A Quantum Leap Into The Future Of Chemistry


 Q-Chem 5.4 (devel), Q-Chem, Inc., Pleasanton, CA (2021)

 E. Epifanovsky,  A. T. B. Gilbert,  Xintian Feng,  Joonho Lee,  Yuezhi Mao,  
 N. Mardirossian,  P. Pokhilko,  A. White,  M. Wormit,  M. P. Coons,  
 A. L. Dempwolff,  Zhengting Gan,  D. Hait,  P. R. Horn,  L. D. Jacobson,  
 I. Kaliman,  J. Kussmann,  A. W. Lange,  Ka Un Lao,  D. S. Levine,  Jie Liu,  
 S. C. McKenzie,  A. F. Morrison,  K. Nanda,  F. Plasser,  D. R. Rehn,  
 M. L. Vidal,  Zhi-Qiang You,  Ying Zhu,  B. Alam,  B. Albrecht,  
 A. Aldossary,  E. Alguire,  J. H. Andersen,  D. Barton,  K. Begam,  A. Behn,  
 Y. A. Bernard,  E. J. Berquist,  H. Burton,  A. Carreras,  K. Carter-Fenk,  
 Romit Chakraborty,  A. D. Chien,  K. D. Closser,  V. Cofer-Shabica,  
 S. Dasgupta,  Jia Deng,  M. de Wergifosse,  M. Diedenhofen,  Hainam Do,  
 S. Ehlert,  Po-Tung Fang,  S. Fatehi,  Qingguo Feng,  T. Friedhoff,  
 J. Gayvert,  Qinghui Ge,  G. Gidofalvi,  M. Goldey,  J. Gomes,  
 C. Gonzalez-Espinoza,  S. Gulania,  A. Gunina,  M. W. D. Hanson-Heine,  
 P. H. P. Harbach,  A. W. Hauser,  M. F. Herbst,  M. Hernandez Vera,  
 M. Hodecker,  Z. C. Holden,  S. Houck,  Xunkun Huang,  Kerwin Hui,  
 B. C. Huynh,  M. Ivanov,  Hyunjun Ji,  Hanjie Jiang,  B. Kaduk,  S. Kaehler,  
 K. Khistyaev,  Jaehoon Kim,  P. Klunzinger,  Z. Koczor-Benda,  
 Joong Hoon Koh,  D. Kosenkov,  L. Koulias,  T. Kowalczyk,  C. M. Krauter,  
 K. Kue,  A. Kunitsa,  T. Kus,  A. Landau,  K. V. Lawler,  D. Lefrancois,  
 S. Lehtola,  Rain Li,  Yi-Pei Li,  Jiashu Liang,  M. Liebenthal,  
 Hung-Hsuan Lin,  You-Sheng Lin,  Fenglai Liu,  Kuan-Yu Liu,  
 M. Loipersberger,  A. Luenser,  A. Manjanath,  P. Manohar,  E. Mansoor,  
 S. F. Manzer,  Shan-Ping Mao,  A. V. Marenich,  T. Markovich,  S. Mason,  
 S. A. Maurer,  P. F. McLaughlin,  M. F. S. J. Menger,  J.-M. Mewes,  
 S. A. Mewes,  P. Morgante,  J. W. Mullinax,  K. J. Oosterbaan,  G. Paran,  
 Alexander C. Paul,  Suranjan K. Paul,  F. Pavosevic,  Zheng Pei,  S. Prager,  
 E. I. Proynov,  E. Ramos,  B. Rana,  A. E. Rask,  A. Rettig,  R. M. Richard,  
 F. Rob,  E. Rossomme,  T. Scheele,  M. Scheurer,  M. Schneider,  
 N. Sergueev,  S. M. Sharada,  W. Skomorowski,  D. W. Small,  C. J. Stein,  
 Yu-Chuan Su,  E. J. Sundstrom,  Zhen Tao,  J. Thirman,  T. Tsuchimochi,  
 N. M. Tubman,  S. P. Veccham,  O. Vydrov,  J. Wenzel,  J. Witte,  A. Yamada,  
 Kun Yao,  S. Yeganeh,  S. R. Yost,  A. Zech,  Igor Ying Zhang,  Xing Zhang,  
 Yu Zhang,  D. Zuev,  A. Aspuru-Guzik,  A. T. Bell,  N. A. Besley,  
 K. B. Bravaya,  B. R. Brooks,  D. Casanova,  Jeng-Da Chai,  S. Coriani,  
 C. J. Cramer,  A. E. DePrince, III,  R. A. DiStasio Jr.,  A. Dreuw,  
 B. D. Dunietz,  T. R. Furlani,  W. A. Goddard III,  S. Grimme,  
 S. Hammes-Schiffer,  T. Head-Gordon,  W. J. Hehre,  Chao-Ping Hsu,  
 T.-C. Jagau,  Yousung Jung,  A. Klamt,  Jing Kong,  D. S. Lambrecht,  
 WanZhen Liang,  N. J. Mayhall,  C. W. McCurdy,  J. B. Neaton,  T. Neudecker,  
 C. Ochsenfeld,  J. A. Parkhill,  R. Peverati,  V. A. Rassolov,  Yihan Shao,  
 L. V. Slipchenko,  R. P. Steele,  J. E. Subotnik,  A. J. W. Thom,  
 A. Tkatchenko,  D. G. Truhlar,  T. Van Voorhis,  T. A. Wesolowski,  
 K. B. Whaley,  H. L. Woodcock III,  P. M. Zimmerman,  S. Faraji,  
 P. M. W. Gill,  M. Head-Gordon,  J. M. Herbert,  A. I. Krylov

 Additional authors since Version 5.4.0: 
 Chandrima Chakravarty,  L. Cunha,  R. Kang,  Yongbin Kim,  S. Kotaru,  
 Shaozhi Li,  Xiangyuan Li,  F. Matz,  A. Molle,  V. Parravicini,  
 Haisheng Ren,  Hengyuan Shen,  Yingli Su,  Hung-Yi Tsai,  C. Utku,  
 Fang Wang,  Jeff Yang,  F. Zeller

 Contributors to earlier versions of Q-Chem not listed above: 
 R. D. Adamson,  B. Austin,  R. Baer,  J. Baker,  G. J. O. Beran,  
 K. Brandhorst,  S. T. Brown,  E. F. C. Byrd,  Arup K. Chakraborty,  
 G. K. L. Chan,  Chun-Min Chang,  Yunqing Chen,  C.-L. Cheng,  
 Siu Hung Chien,  D. M. Chipman,  D. L. Crittenden,  H. Dachsel,  
 R. J. Doerksen,  A. D. Dutoi,  R. G. Edgar,  J. Fosso-Tande,  
 L. Fusti-Molnar,  D. Ghosh,  A. Ghysels,  A. Golubeva-Zadorozhnaya,  
 J. Gonthier,  M. S. Gordon,  S. R. Gwaltney,  G. Hawkins,  J. E. Herr,  
 A. Heyden,  S. Hirata,  E. G. Hohenstein,  G. Kedziora,  F. J. Keil,  
 C. Kelley,  Jihan Kim,  R. A. King,  R. Z. Khaliullin,  P. P. Korambath,  
 W. Kurlancheek,  A. Laurent,  A. M. Lee,  M. S. Lee,  S. V. Levchenko,  
 Ching Yeh Lin,  D. Liotard,  E. Livshits,  R. C. Lochan,  I. Lotan,  
 L. A. Martinez-Martinez,  P. E. Maslen,  N. Nair,  D. P. O'Neill,  
 D. Neuhauser,  E. Neuscamman,  C. M. Oana,  R. Olivares-Amaya,  R. Olson,  
 T. M. Perrine,  B. Peters,  P. A. Pieniazek,  A. Prociuk,  Y. M. Rhee,  
 J. Ritchie,  M. A. Rohrdanz,  E. Rosta,  N. J. Russ,  H. F. Schaefer III,  
 M. W. Schmidt,  N. E. Schultz,  S. Sharma,  N. Shenvi,  C. D. Sherrill,  
 A. C. Simmonett,  A. Sodt,  T. Stein,  D. Stuck,  K. S. Thanthiriwatte,  
 V. Vanovschi,  L. Vogt,  Tao Wang,  A. Warshel,  M. A. Watson,  
 C. F. Williams,  Q. Wu,  X. Xu,  Jun Yang,  W. Zhang,  Yan Zhao

   Please cite Q-Chem as follows:
  "Software for the frontiers of quantum chemistry:
   An overview of developments in the Q-Chem 5 package"
   J. Chem. Phys. 155, 084801 (2021)
   https://doi.org/10.1063/5.0055522 (open access)

 Q-Chem 5.4.2 for Intel X86 EM64T Linux

 Parts of Q-Chem use Armadillo 9.900.5 (Nocturnal Misbehaviour).
 http://arma.sourceforge.net/

 Q-Chem begins on Mon Mar  7 17:36:39 2022  

orc21
 Host: 0

     Scratch files written to /scratch/wojcik/qchem9535//
 Processing $rem in /qcsoftware/qchem_latest/config/preferences:
 Processing $rem in /home/users/wojcik/.qchemrc:
 Core orbitals will be frozen

 Checking the input file for inconsistencies... 	...done.

--------------------------------------------------------------
User input:
--------------------------------------------------------------
$molecule
0 1  ! charge = 0, multiplicty = 1
  H 
  H H r

  r = 0.743373 ! Angstrom, opt with ccsd/aug-cc-pVTZ
$end

$rem
! method
  job_type = force
  method = eom-ccsd
  ee_states = [0, 0, 0, 0, 0, 1, 0, 0]
  cc_state_to_opt = [6, 1]
  basis = aug-cc-pVTZ

! memory
  mem_total = 102400
  cc_memory = 81920
$end
--------------------------------------------------------------
 ----------------------------------------------------------------
             Standard Nuclear Orientation (Angstroms)
    I     Atom           X                Y                Z
 ----------------------------------------------------------------
    1      H       0.0000000000     0.0000000000    -0.3716865000
    2      H       0.0000000000     0.0000000000     0.3716865000
 ----------------------------------------------------------------
 Molecular Point Group                 D2h   NOp =  8
 Largest Abelian Subgroup              D2h   NOp =  8
 Nuclear Repulsion Energy =           0.71185961 hartrees
 There are        1 alpha and        1 beta electrons
 Requested basis set is aug-cc-pVTZ
 There are 18 shells and 46 basis functions
 Total memory of 102400 MB is distributed as follows: 
   MEM_STATIC is set to 192 MB
   QALLOC/CCMAN JOB total memory use is  102208 MB
 Warning: actual memory use might exceed 102400 MB

 Total QAlloc Memory Limit 102400 MB
 Mega-Array Size       188 MB
 MEM_STATIC part       192 MB


                       Distance Matrix (Angstroms)
             H (  1)
   H (  2)  0.743373

 A cutoff of  1.0D-14 yielded    171 shell pairs
 There are      1139 function pairs (      1353 Cartesian)
 Smallest overlap matrix eigenvalue = 5.49E-05

 Scale SEOQF with 1.000000e+00/1.000000e+00/1.000000e-01

 Standard Electronic Orientation quadrupole field applied
 Guess from superposition of atomic densities
 Warning:  Energy on first SCF cycle will be non-variational
 SAD guess density has 2.000000 electrons

 -----------------------------------------------------------------------
  General SCF calculation program by
  Eric Jon Sundstrom, Paul Horn, Yuezhi Mao, Dmitri Zuev, Alec White,
  David Stuck, Shaama M.S., Shane Yost, Joonho Lee, David Small,
  Daniel Levine, Susi Lehtola, Hugh Burton, Evgeny Epifanovsky,
  Bang C. Huynh
 -----------------------------------------------------------------------
 Hartree-Fock
 using 12 threads for integral computing
 -------------------------------------------------------
 OpenMP Integral computing Module                
 Release: version 1.0, May 2013, Q-Chem Inc. Pittsburgh 
 -------------------------------------------------------
 A restricted SCF calculation will be
 performed using DIIS
 SCF converges when DIIS error is below 1.0e-08
 ---------------------------------------
  Cycle       Energy         DIIS error
 ---------------------------------------
    1      -0.8509367564      1.00e-02  
    2      -1.1316706551      1.55e-03  
    3      -1.1329854669      1.54e-04  
    4      -1.1329993003      2.46e-05  
    5      -1.1329997866      1.37e-06  
    6      -1.1329997880      6.69e-08  
    7      -1.1329997880      4.60e-09  Convergence criterion met
 ---------------------------------------
 SCF time:   CPU 1.16s  wall 1.00s 
 SCF   energy in the final basis set =       -1.1329997880
 Total energy in the final basis set =       -1.1329997880


 ------------------------------------------------------------------------------

   CCMAN2: suite of methods based on coupled cluster
           and equation of motion theories.

   Components:
   * libvmm-1.3-trunk
     by Evgeny Epifanovsky, Ilya Kaliman.
   * libtensor-2.5-trunk
     by Evgeny Epifanovsky, Michael Wormit, Dmitry Zuev, Sam Manzer, 
        Ilya Kaliman.
   * libcc-2.5-trunk
     by Evgeny Epifanovsky, Arik Landau, Tomasz Kus, Kirill Khistyaev, 
        Dmitry Zuev, Prashant Manohar, Xintian Feng, Anna Krylov, 
        Matthew Goldey, Alec White, Thomas Jagau, Kaushik Nanda, 
        Anastasia Gunina, Alexander Kunitsa, Joonho Lee.

   CCMAN original authors:
   Anna I. Krylov, C. David Sherrill, Steven R. Gwaltney,
   Edward F. C. Byrd (2000)
   Sergey V. Levchenko, Lyudmila V. Slipchenko, Tao Wang,
   Ana-Maria C. Cristian (2003)
   Piotr A. Pieniazek, C. Melania Oana, Evgeny Epifanovsky (2007)
   Prashant Manohar (2009)

 ------------------------------------------------------------------------------


 Allocating and initializing 81920MB of RAM...
 Calculation will run on 12 cores.


 Alpha MOs, Restricted
 -- Occupied --                  
 -0.594
  1 Ag                                                                         
 -- Virtual --                   
  0.053   0.053   0.190   0.209   0.209   0.285   0.297   0.297
  1 B1u   2 Ag    2 B1u   1 B3u   1 B2u   3 Ag    1 B2g   1 B3g                
  0.418   0.420   0.738   0.791   0.791   0.884   0.884   0.903
  4 Ag    3 B1u   4 B1u   1 B1g   5 Ag    2 B2g   2 B3g   6 Ag                 
  0.931   0.931   1.046   1.048   1.048   1.067   1.067   1.523
  2 B3u   2 B2u   5 B1u   6 B1u   1 Au    3 B3u   3 B2u   7 Ag                 
  1.937   1.937   2.131   2.592   2.935   3.616   3.616   3.633
  3 B2g   3 B3g   7 B1u   8 B1u   8 Ag    2 B1g   9 Ag    4 B3u                
  3.633   4.154   4.404   4.404   4.429   4.429   4.488   4.488
  4 B2u  10 Ag    2 Au    9 B1u   5 B3u   5 B2u   4 B2g   4 B3g                
  5.182   5.777   5.777   5.978   7.109
 10 B1u   5 B2g   5 B3g  11 Ag   11 B1u                                        

 Beta MOs, Restricted
 -- Occupied --                  
 -0.594
  1 Ag                                                                         
 -- Virtual --                   
  0.053   0.053   0.190   0.209   0.209   0.285   0.297   0.297
  1 B1u   2 Ag    2 B1u   1 B3u   1 B2u   3 Ag    1 B2g   1 B3g                
  0.418   0.420   0.738   0.791   0.791   0.884   0.884   0.903
  4 Ag    3 B1u   4 B1u   1 B1g   5 Ag    2 B2g   2 B3g   6 Ag                 
  0.931   0.931   1.046   1.048   1.048   1.067   1.067   1.523
  2 B3u   2 B2u   5 B1u   6 B1u   1 Au    3 B3u   3 B2u   7 Ag                 
  1.937   1.937   2.131   2.592   2.935   3.616   3.616   3.633
  3 B2g   3 B3g   7 B1u   8 B1u   8 Ag    2 B1g   9 Ag    4 B3u                
  3.633   4.154   4.404   4.404   4.429   4.429   4.488   4.488
  4 B2u  10 Ag    2 Au    9 B1u   5 B3u   5 B2u   4 B2g   4 B3g                
  5.182   5.777   5.777   5.978   7.109
 10 B1u   5 B2g   5 B3g  11 Ag   11 B1u                                        

 Occupation and symmetry of molecular orbitals

 Point group: D2h (8 irreducible representations).

                           Ag   B1g  B2g  B3g  Au   B1u  B2u  B3u   All 
 ------------------------------------------------------------------------
 All molecular orbitals:
  - Alpha                  11   2    5    5    2    11   5    5     46  
  - Beta                   11   2    5    5    2    11   5    5     46  
 ------------------------------------------------------------------------
 Alpha orbitals:
  - Frozen occupied        0    0    0    0    0    0    0    0     0   
  - Active occupied        1    0    0    0    0    0    0    0     1   
  - Active virtual         10   2    5    5    2    11   5    5     45  
  - Frozen virtual         0    0    0    0    0    0    0    0     0   
 ------------------------------------------------------------------------
 Beta orbitals:
  - Frozen occupied        0    0    0    0    0    0    0    0     0   
  - Active occupied        1    0    0    0    0    0    0    0     1   
  - Active virtual         10   2    5    5    2    11   5    5     45  
  - Frozen virtual         0    0    0    0    0    0    0    0     0   
 ------------------------------------------------------------------------

 Import integrals:   CPU 0.00 s  wall 0.00 s

 Import integrals:   CPU 0.70 s  wall 0.16 s

 MP2 amplitudes:   CPU 0.05 s  wall 0.04 s

Running a double precision version
           CCSD T amplitudes will be solved using DIIS.

           Start     Size      MaxIter   EConv     TConv     
           3         7         100       1.00e-07  1.00e-05  
 ------------------------------------------------------------------------------
           Energy (a.u.)   Ediff      Tdiff       Comment
 ------------------------------------------------------------------------------
            -1.16499891                           
     1      -1.17022531   5.23e-03   1.54e-01     
     2      -1.17181193   1.59e-03   3.21e-02     
     3      -1.17233671   5.25e-04   1.09e-02     
     4      -1.17263219   2.95e-04   6.13e-03     Switched to DIIS steps.
     5      -1.17263557   3.37e-06   6.07e-04     
     6      -1.17263547   9.95e-08   3.89e-05     
     7      -1.17263546   2.30e-09   8.73e-06     
 ------------------------------------------------------------------------------
            -1.17263546                           CCSD T converged.

End of double precision
 SCF energy                 = -1.13299979
 MP2 energy                 = -1.16499891
 CCSD correlation energy    = -0.03963568
 CCSD total energy          = -1.17263546

 CCSD  T1^2 = 0.0001  T2^2 = 0.0183  Leading amplitudes:

 Amplitude    Orbitals with energies
 -0.0054       1 (Ag) A                  ->    4 (Ag) A                   
              -0.5936                          0.4176                     
 -0.0054       1 (Ag) B                  ->    4 (Ag) B                   
              -0.5936                          0.4176                     
  0.0032       1 (Ag) A                  ->    6 (Ag) A                   
              -0.5936                          0.9028                     
  0.0032       1 (Ag) B                  ->    6 (Ag) B                   
              -0.5936                          0.9028                     

 Amplitude    Orbitals with energies
 -0.0324       1 (Ag) A      1 (Ag) B    ->    2 (B1u) A     2 (B1u) B    
              -0.5936       -0.5936            0.1901        0.1901       
  0.0324       1 (Ag) A      1 (Ag) B    ->    2 (B1u) B     2 (B1u) A    
              -0.5936       -0.5936            0.1901        0.1901       
  0.0324       1 (Ag) B      1 (Ag) A    ->    2 (B1u) A     2 (B1u) B    
              -0.5936       -0.5936            0.1901        0.1901       
 -0.0324       1 (Ag) B      1 (Ag) A    ->    2 (B1u) B     2 (B1u) A    
              -0.5936       -0.5936            0.1901        0.1901       

 Computing CCSD intermediates for later calculations in double precision
 Finished.

 CCSD calculation:   CPU 3.28 s  wall 1.20 s

        Solving for EOMEE-CCSD B1u singlet states.

Running a double precision version
        EOMEE-CCSD/MP2 right amplitudes will be solved using Davidson.
        Amplitudes will be solved using standard  algorithm.
     Hard-coded thresholds: 
     LinDepThresh=1.00e-15  NormThresh=1.00e-06  ReorthogonThresh=1.00e-02

      Roots     MaxVec    MaxIter   Precond   Conv      Shift    
      1         120       60        1         1.00e-06  0.00e+00  
 ------------------------------------------------------------------------------
      Iter ConvRoots NVecs ResNorm Current eigenvalues (eV)
 ------------------------------------------------------------------------------
      0    0      1     3.67e-02   14.4589   
      1    0      2     3.40e-02   13.7170   
      2    0      3     1.25e-02   13.0321   
      3    0      4     2.30e-03   12.7418   
      4    0      5     8.07e-05   12.7155   
      5    0      6     5.46e-06   12.7145   
      6    1      7     1.50e-07   12.7144*  

     Davidson procedure converged

 EOMEE transition 1/B1u
 Total energy = -0.70538919 a.u.  Excitation energy = 12.7144 eV.
 R0^2 = 0.0000  R1^2 = 0.9648  R2^2 = 0.0352  Res^2 = 1.50e-07
 Conv-d = yes

 Amplitude    Transitions between orbitals
  0.5872       1 (Ag) A                  ->    1 (B1u) A                  
  0.5872       1 (Ag) B                  ->    1 (B1u) B                  
  0.3665       1 (Ag) A                  ->    2 (B1u) A                  
  0.3665       1 (Ag) B                  ->    2 (B1u) B                  

              Summary of significant orbitals:

               Number  Type             Irrep      Energy
               1       Occ  Alpha       1 (Ag)     -0.5936
               1       Occ  Beta        1 (Ag)     -0.5936
               2       Vir  Alpha       1 (B1u)      0.0525
               4       Vir  Alpha       2 (B1u)      0.1901
               2       Vir  Beta        1 (B1u)      0.0525
               4       Vir  Beta        2 (B1u)      0.1901


Running a double precision version
      EOM-CCSD/MP2 left amplitudes will be solved using Davidson.
        Amplitudes will be solved using MOM  algorithm.
     Hard-coded thresholds: 
     LinDepThresh=1.00e-15  NormThresh=1.00e-06  ReorthogonThresh=1.00e-02

      Roots     MaxVec    MaxIter   Precond   Conv      Shift    
      1         120       60        1         1.00e-06  0.00e+00  
 ------------------------------------------------------------------------------
      Iter ConvRoots NVecs ResNorm Current eigenvalues (eV)
 ------------------------------------------------------------------------------
      0    0      1     1.17e-04   12.7144   
      1    0      2     4.05e-05   12.7144   
      2    0      3     1.20e-06   12.7144   
      3    1      4     1.22e-07   12.7144*  

     Davidson procedure converged

Running a double precision version
           EOM amplitude response will be solved using DIIS.
           Start     Size      MaxIter   EConv     ZConv     
           3         7         100       1.00e-06  1.00e-06  
 ------------------------------------------------------------------------------
            Enorm      Zdiff       Comment
 ------------------------------------------------------------------------------
     1     5.23e-18   4.92e-18     
 ------------------------------------------------------------------------------
                                   Amplitude response converged.

           Orbital response amplitudes will be solved using DIIS.
           Start     Size      MaxIter   EConv     LConv     
           3         7         100       1.00e-06  1.00e-06  
 ------------------------------------------------------------------------------
            Enorm      Ldiff       Comment
 ------------------------------------------------------------------------------
     1     2.00e-04   1.18e-05     
     2     1.21e-05   2.87e-06     
     3     1.26e-06   4.78e-07     
     4     4.55e-08   4.31e-08     Switched to DIIS steps.
 ------------------------------------------------------------------------------
                                   Orbital response converged.

 EOMEE-CCSD calculation:   CPU 12.53 s  wall 7.61 s

 Adding separable TPDM in double precision
 Transferring MO TPDM to AO TPDM
 Transferring g2_o1o1o1o1
 Transferring g2_o1o1o1v1
 Transferring g2_o1o1v1v1
 Transferring g2_o1v1o1v1
 Transferring g2_o1v1v1v1
 Transferring g2_v1v1v1v1
 Computing TPDM gradient
 --------------------------------------------------------
 2e gradient
  Atom          X               Y               Z
 --------------------------------------------------------
    1          0.000000        0.000000        0.248639  
    2         -0.000000       -0.000000       -0.248639  
 --------------------------------------------------------
 --------------------------------------------------------
 Final gradient
  Atom          X               Y               Z
 --------------------------------------------------------
    1          0.000000        0.000000        0.248639  
    2         -0.000000       -0.000000       -0.248639  
 --------------------------------------------------------
 Analytic gradient from two-electron contribution:   CPU 11.48 s  wall 1.34 s

 Total ccman2 time:   CPU 30.66 s  wall 11.28 s


 --------------------------------------------------------------
             Orbital Energies (a.u.) and Symmetries
 --------------------------------------------------------------

 Alpha MOs, Restricted
 -- Occupied --                  
 -0.594
  1 Ag                                                                         
 -- Virtual --                   
  0.053   0.285   0.418   0.791   0.903   1.523   2.935   3.616
  2 Ag    3 Ag    4 Ag    5 Ag    6 Ag    7 Ag    8 Ag    9 Ag                 
  4.154   5.978   0.791   3.616   0.297   0.884   1.937   4.488
 10 Ag   11 Ag    1 B1g   2 B1g   1 B2g   2 B2g   3 B2g   4 B2g                
  5.777   0.297   0.884   1.937   4.488   5.777   1.048   4.404
  5 B2g   1 B3g   2 B3g   3 B3g   4 B3g   5 B3g   1 Au    2 Au                 
  0.053   0.190   0.420   0.738   1.046   1.048   2.131   2.592
  1 B1u   2 B1u   3 B1u   4 B1u   5 B1u   6 B1u   7 B1u   8 B1u                
  4.404   5.182   7.109   0.209   0.931   1.067   3.633   4.429
  9 B1u  10 B1u  11 B1u   1 B2u   2 B2u   3 B2u   4 B2u   5 B2u                
  0.209   0.931   1.067   3.633   4.429
  1 B3u   2 B3u   3 B3u   4 B3u   5 B3u                                        

 Beta MOs, Restricted
 -- Occupied --                  
 -0.594
  1 Ag                                                                         
 -- Virtual --                   
  0.053   0.285   0.418   0.791   0.903   1.523   2.935   3.616
  2 Ag    3 Ag    4 Ag    5 Ag    6 Ag    7 Ag    8 Ag    9 Ag                 
  4.154   5.978   0.791   3.616   0.297   0.884   1.937   4.488
 10 Ag   11 Ag    1 B1g   2 B1g   1 B2g   2 B2g   3 B2g   4 B2g                
  5.777   0.297   0.884   1.937   4.488   5.777   1.048   4.404
  5 B2g   1 B3g   2 B3g   3 B3g   4 B3g   5 B3g   1 Au    2 Au                 
  0.053   0.190   0.420   0.738   1.046   1.048   2.131   2.592
  1 B1u   2 B1u   3 B1u   4 B1u   5 B1u   6 B1u   7 B1u   8 B1u                
  4.404   5.182   7.109   0.209   0.931   1.067   3.633   4.429
  9 B1u  10 B1u  11 B1u   1 B2u   2 B2u   3 B2u   4 B2u   5 B2u                
  0.209   0.931   1.067   3.633   4.429
  1 B3u   2 B3u   3 B3u   4 B3u   5 B3u                                        
 --------------------------------------------------------------

          Ground-State Mulliken Net Atomic Charges

     Atom                 Charge (a.u.)
  ----------------------------------------
      1 H                    -0.000000
      2 H                     0.000000
  ----------------------------------------
  Sum of atomic charges =     0.000000

 -----------------------------------------------------------------
                    Cartesian Multipole Moments
 -----------------------------------------------------------------
    Charge (ESU x 10^10)
                -0.0000
    Dipole Moment (Debye)
         X       0.0000      Y      -0.0000      Z      -0.0000
       Tot       0.0000
    Quadrupole Moments (Debye-Ang)
        XX      -7.5010     XY       0.0000     YY      -7.5010
        XZ       0.0000     YZ       0.0000     ZZ     -21.1811
    Octopole Moments (Debye-Ang^2)
       XXX       0.0000    XXY      -0.0000    XYY       0.0000
       YYY      -0.0000    XXZ      -0.0000    XYZ       0.0000
       YYZ      -0.0000    XZZ       0.0000    YZZ      -0.0000
       ZZZ      -0.0000
    Hexadecapole Moments (Debye-Ang^3)
      XXXX     -41.4425   XXXY       0.0000   XXYY     -13.8142
      XYYY       0.0000   YYYY     -41.4425   XXXZ      -0.0000
      XXYZ       0.0000   XYYZ      -0.0000   YYYZ       0.0000
      XXZZ     -42.5292   XYZZ       0.0000   YYZZ     -42.5292
      XZZZ       0.0000   YZZZ       0.0000   ZZZZ    -219.3172
 -----------------------------------------------------------------
 DrvMan completing analytic gradient of the correlated energy
 Correlated dipole moment
            1
    1   0.0000000
    2  -0.0000000
    3  -0.0000000
 Energy read as -0.705389193
 Full Analytical Gradient: (in a.u., or Hartree/Bohr)
             1             2
    1    0.00000000   -0.00000000
    2   -0.00000000    0.00000000
    3    0.16277344   -0.16277344
 Gradient time:  CPU 1.99 s  wall 3.14 s
 Total job time:  39.81s(wall), 59.46s(cpu) 
 Mon Mar  7 17:37:19 2022

        *************************************************************
        *                                                           *
        *  Thank you very much for using Q-Chem.  Have a nice day.  *
        *                                                           *
        *************************************************************


