                  Welcome to Q-Chem
     A Quantum Leap Into The Future Of Chemistry


 Q-Chem 5.4 (devel), Q-Chem, Inc., Pleasanton, CA (2021)

 E. Epifanovsky,  A. T. B. Gilbert,  Xintian Feng,  Joonho Lee,  Yuezhi Mao,  
 N. Mardirossian,  P. Pokhilko,  A. White,  M. Wormit,  M. P. Coons,  
 A. L. Dempwolff,  Zhengting Gan,  D. Hait,  P. R. Horn,  L. D. Jacobson,  
 I. Kaliman,  J. Kussmann,  A. W. Lange,  Ka Un Lao,  D. S. Levine,  Jie Liu,  
 S. C. McKenzie,  A. F. Morrison,  K. Nanda,  F. Plasser,  D. R. Rehn,  
 M. L. Vidal,  Zhi-Qiang You,  Ying Zhu,  B. Alam,  B. Albrecht,  
 A. Aldossary,  E. Alguire,  J. H. Andersen,  D. Barton,  K. Begam,  A. Behn,  
 Y. A. Bernard,  E. J. Berquist,  H. Burton,  A. Carreras,  K. Carter-Fenk,  
 Romit Chakraborty,  A. D. Chien,  K. D. Closser,  V. Cofer-Shabica,  
 S. Dasgupta,  Jia Deng,  M. de Wergifosse,  M. Diedenhofen,  Hainam Do,  
 S. Ehlert,  Po-Tung Fang,  S. Fatehi,  Qingguo Feng,  T. Friedhoff,  
 J. Gayvert,  Qinghui Ge,  G. Gidofalvi,  M. Goldey,  J. Gomes,  
 C. Gonzalez-Espinoza,  S. Gulania,  A. Gunina,  M. W. D. Hanson-Heine,  
 P. H. P. Harbach,  A. W. Hauser,  M. F. Herbst,  M. Hernandez Vera,  
 M. Hodecker,  Z. C. Holden,  S. Houck,  Xunkun Huang,  Kerwin Hui,  
 B. C. Huynh,  M. Ivanov,  Hyunjun Ji,  Hanjie Jiang,  B. Kaduk,  S. Kaehler,  
 K. Khistyaev,  Jaehoon Kim,  P. Klunzinger,  Z. Koczor-Benda,  
 Joong Hoon Koh,  D. Kosenkov,  L. Koulias,  T. Kowalczyk,  C. M. Krauter,  
 K. Kue,  A. Kunitsa,  T. Kus,  A. Landau,  K. V. Lawler,  D. Lefrancois,  
 S. Lehtola,  Rain Li,  Yi-Pei Li,  Jiashu Liang,  M. Liebenthal,  
 Hung-Hsuan Lin,  You-Sheng Lin,  Fenglai Liu,  Kuan-Yu Liu,  
 M. Loipersberger,  A. Luenser,  A. Manjanath,  P. Manohar,  E. Mansoor,  
 S. F. Manzer,  Shan-Ping Mao,  A. V. Marenich,  T. Markovich,  S. Mason,  
 S. A. Maurer,  P. F. McLaughlin,  M. F. S. J. Menger,  J.-M. Mewes,  
 S. A. Mewes,  P. Morgante,  J. W. Mullinax,  K. J. Oosterbaan,  G. Paran,  
 Alexander C. Paul,  Suranjan K. Paul,  F. Pavosevic,  Zheng Pei,  S. Prager,  
 E. I. Proynov,  E. Ramos,  B. Rana,  A. E. Rask,  A. Rettig,  R. M. Richard,  
 F. Rob,  E. Rossomme,  T. Scheele,  M. Scheurer,  M. Schneider,  
 N. Sergueev,  S. M. Sharada,  W. Skomorowski,  D. W. Small,  C. J. Stein,  
 Yu-Chuan Su,  E. J. Sundstrom,  Zhen Tao,  J. Thirman,  T. Tsuchimochi,  
 N. M. Tubman,  S. P. Veccham,  O. Vydrov,  J. Wenzel,  J. Witte,  A. Yamada,  
 Kun Yao,  S. Yeganeh,  S. R. Yost,  A. Zech,  Igor Ying Zhang,  Xing Zhang,  
 Yu Zhang,  D. Zuev,  A. Aspuru-Guzik,  A. T. Bell,  N. A. Besley,  
 K. B. Bravaya,  B. R. Brooks,  D. Casanova,  Jeng-Da Chai,  S. Coriani,  
 C. J. Cramer,  A. E. DePrince, III,  R. A. DiStasio Jr.,  A. Dreuw,  
 B. D. Dunietz,  T. R. Furlani,  W. A. Goddard III,  S. Grimme,  
 S. Hammes-Schiffer,  T. Head-Gordon,  W. J. Hehre,  Chao-Ping Hsu,  
 T.-C. Jagau,  Yousung Jung,  A. Klamt,  Jing Kong,  D. S. Lambrecht,  
 WanZhen Liang,  N. J. Mayhall,  C. W. McCurdy,  J. B. Neaton,  T. Neudecker,  
 C. Ochsenfeld,  J. A. Parkhill,  R. Peverati,  V. A. Rassolov,  Yihan Shao,  
 L. V. Slipchenko,  R. P. Steele,  J. E. Subotnik,  A. J. W. Thom,  
 A. Tkatchenko,  D. G. Truhlar,  T. Van Voorhis,  T. A. Wesolowski,  
 K. B. Whaley,  H. L. Woodcock III,  P. M. Zimmerman,  S. Faraji,  
 P. M. W. Gill,  M. Head-Gordon,  J. M. Herbert,  A. I. Krylov

 Additional authors since Version 5.4.0: 
 Chandrima Chakravarty,  L. Cunha,  R. Kang,  Yongbin Kim,  S. Kotaru,  
 Shaozhi Li,  Xiangyuan Li,  F. Matz,  V. Parravicini,  Haisheng Ren,  
 Hengyuan Shen,  Yingli Su,  Hung-Yi Tsai,  C. Utku,  Fan Wang,  Jeff Yang,  
 F. Zeller

 Contributors to earlier versions of Q-Chem not listed above: 
 R. D. Adamson,  B. Austin,  R. Baer,  J. Baker,  G. J. O. Beran,  
 K. Brandhorst,  S. T. Brown,  E. F. C. Byrd,  Arup K. Chakraborty,  
 G. K. L. Chan,  Chun-Min Chang,  Yunqing Chen,  C.-L. Cheng,  
 Siu Hung Chien,  D. M. Chipman,  D. L. Crittenden,  H. Dachsel,  
 R. J. Doerksen,  A. D. Dutoi,  R. G. Edgar,  J. Fosso-Tande,  
 L. Fusti-Molnar,  D. Ghosh,  A. Ghysels,  A. Golubeva-Zadorozhnaya,  
 J. Gonthier,  M. S. Gordon,  S. R. Gwaltney,  G. Hawkins,  J. E. Herr,  
 A. Heyden,  S. Hirata,  E. G. Hohenstein,  G. Kedziora,  F. J. Keil,  
 C. Kelley,  Jihan Kim,  R. A. King,  R. Z. Khaliullin,  P. P. Korambath,  
 W. Kurlancheek,  A. Laurent,  A. M. Lee,  M. S. Lee,  S. V. Levchenko,  
 Ching Yeh Lin,  D. Liotard,  E. Livshits,  R. C. Lochan,  I. Lotan,  
 L. A. Martinez-Martinez,  P. E. Maslen,  N. Nair,  D. P. O'Neill,  
 D. Neuhauser,  E. Neuscamman,  C. M. Oana,  R. Olivares-Amaya,  R. Olson,  
 T. M. Perrine,  B. Peters,  P. A. Pieniazek,  A. Prociuk,  Y. M. Rhee,  
 J. Ritchie,  M. A. Rohrdanz,  E. Rosta,  N. J. Russ,  H. F. Schaefer III,  
 M. W. Schmidt,  N. E. Schultz,  S. Sharma,  N. Shenvi,  C. D. Sherrill,  
 A. C. Simmonett,  A. Sodt,  T. Stein,  D. Stuck,  K. S. Thanthiriwatte,  
 V. Vanovschi,  L. Vogt,  Tao Wang,  A. Warshel,  M. A. Watson,  
 C. F. Williams,  Q. Wu,  X. Xu,  Jun Yang,  W. Zhang,  Yan Zhao

   Please cite Q-Chem as follows:
  "Software for the frontiers of quantum chemistry:
   An overview of developments in the Q-Chem 5 package"
   J. Chem. Phys. 155, 084801 (2021)
   https://doi.org/10.1063/5.0055522 (open access)

 Q-Chem 5.4.2 for Intel X86 EM64T Linux

 Parts of Q-Chem use Armadillo 9.900.5 (Nocturnal Misbehaviour).
 http://arma.sourceforge.net/

 Q-Chem begins on Wed May 25 18:19:37 2022  

node42
 Host: 0

     Scratch files written to /scratch/wojcik/qchem780//
 Processing $rem in /qcsoftware/qchem_latest/config/preferences:
 Processing $rem in /home/users/wojcik/.qchemrc:

 Checking the input file for inconsistencies... 	...done.

--------------------------------------------------------------
User input:
--------------------------------------------------------------
$molecule
 0 1
   O    0.0000000000     0.0000000000     0.6637077571
   C    0.0000000000     0.0000000000    -0.5351027012
   H    0.0000000000     0.9394749352    -1.1220697679
   H    0.0000000000    -0.9394749352    -1.1220697679
$end

$rem
  JOBTYPE                force ! for vertical gradinet
  METHOD                 b3lyp
  BASIS                  def2-TZVP
  CIS_STATE_DERIV        2
  CIS_SINGLETS           true
  CIS_TRIPLETS           false
  CIS_N_ROOTS            2
  SYM_IGNORE             true
  SAVE_VIBRONIC_PARAMS   true ! for comparision with the q-chem's built in 
$end

--------------------------------------------------------------
 ----------------------------------------------------------------
             Standard Nuclear Orientation (Angstroms)
    I     Atom           X                Y                Z
 ----------------------------------------------------------------
    1      O       0.0000000000     0.0000000000     0.6637077571
    2      C       0.0000000000     0.0000000000    -0.5351027012
    3      H       0.0000000000     0.9394749352    -1.1220697679
    4      H       0.0000000000    -0.9394749352    -1.1220697679
 ----------------------------------------------------------------
 Nuclear Repulsion Energy =          31.39812520 hartrees
 There are        8 alpha and        8 beta electrons
 Requested basis set is def2-TZVP
 There are 30 shells and 74 basis functions

 Total QAlloc Memory Limit   2000 MB
 Mega-Array Size       188 MB
 MEM_STATIC part       192 MB


                       Distance Matrix (Angstroms)
             O (  1)   C (  2)   H (  3)
   C (  2)  1.198810
   H (  3)  2.017824  1.107765
   H (  4)  2.017824  1.107765  1.878950

 A cutoff of  1.0D-12 yielded    464 shell pairs
 There are      2880 function pairs (      3743 Cartesian)
 Smallest overlap matrix eigenvalue = 1.43E-03

 Scale SEOQF with 1.000000e+00/1.000000e+00/1.000000e+00

 Standard Electronic Orientation quadrupole field applied
 Nucleus-field energy     =    -0.0000000071 hartrees
 Guess from superposition of atomic densities
 Warning:  Energy on first SCF cycle will be non-variational
 SAD guess density has 16.000000 electrons

 -----------------------------------------------------------------------
  General SCF calculation program by
  Eric Jon Sundstrom, Paul Horn, Yuezhi Mao, Dmitri Zuev, Alec White,
  David Stuck, Shaama M.S., Shane Yost, Joonho Lee, David Small,
  Daniel Levine, Susi Lehtola, Hugh Burton, Evgeny Epifanovsky,
  Bang C. Huynh
 -----------------------------------------------------------------------
 Exchange:     0.2000 Hartree-Fock + 0.0800 Slater + 0.7200 B88
 Correlation:  0.1900 VWN1RPA + 0.8100 LYP
 Using SG-1 standard quadrature grid
 using 20 threads for integral computing
 -------------------------------------------------------
 OpenMP Integral computing Module                
 Release: version 1.0, May 2013, Q-Chem Inc. Pittsburgh 
 -------------------------------------------------------
 A restricted SCF calculation will be
 performed using DIIS
 SCF converges when DIIS error is below 1.0e-08
 ---------------------------------------
  Cycle       Energy         DIIS error
 ---------------------------------------
    1    -114.7224216440      6.09e-02  
    2    -114.4966447242      1.03e-02  
    3    -114.2976721777      2.21e-02  
    4    -114.5524898002      1.64e-03  
    5    -114.5540563924      5.91e-04  
    6    -114.5542612499      7.45e-05  
    7    -114.5542641818      1.17e-05  
    8    -114.5542642571      5.37e-07  
    9    -114.5542642573      2.54e-07  
   10    -114.5542642573      9.73e-09  Convergence criterion met
 ---------------------------------------
 SCF time:   CPU 5.47s  wall 0.00s 
 SCF   energy in the final basis set =     -114.5542642573
 Total energy in the final basis set =     -114.5542642573

 MAX_CIS_SUBSPACE fits in available memory
 Direct TDDFT/TDA calculation will be performed
 Exchange:     0.2000 Hartree-Fock + 0.0800 Slater + 0.7200 B88
 Correlation:  0.1900 VWN1RPA + 0.8100 LYP
 Using SG-1 standard quadrature grid
 Singlet excitation energies requested
 CIS energy converged when residual is below 10e- 6
 ---------------------------------------------------
 Iter    Rts Conv    Rts Left    Ttl Dev     Max Dev
 ---------------------------------------------------
   1         0           2      0.002527    0.001402
   2         0           2      0.000342    0.000201
   3         0           2      0.000150    0.000138
   4         1           1      0.000028    0.000027
   5         1           1      0.000005    0.000005
   6         2           0      0.000001    0.000001    Roots Converged
 ---------------------------------------------------

 ---------------------------------------------------
         TDDFT/TDA Excitation Energies              
 ---------------------------------------------------

 Excited state   1: excitation energy (eV) =    4.0429
 Total energy for state  1:                  -114.40568955 au
    Multiplicity: Singlet
    Trans. Mom.: -0.0000 X  -0.0000 Y  -0.0000 Z
    Strength   :     0.0000000000
    D(    8) --> V(    1) amplitude =  0.9984

 Excited state   2: excitation energy (eV) =    7.9376
 Total energy for state  2:                  -114.26256168 au
    Multiplicity: Singlet
    Trans. Mom.:  0.0000 X   0.7502 Y  -0.0000 Z
    Strength   :     0.1094448835
    D(    8) --> V(    2) amplitude =  0.9925

 ---------------------------------------------------
 Calculating Relaxed Density
 ---------------------------------------------------
 Iter    Rts Conv    Rts Left    Ttl Dev     Max Dev
 ---------------------------------------------------
   1         0           2      0.002089    0.001332
   2         0           2      0.000278    0.000173
   3         0           2      0.000052    0.000030
   4         0           2      0.000004    0.000002
   5         2           0      0.000000    0.000000    Roots Converged
 ---------------------------------------------------
  SETman timing summary (seconds)
  CPU time                 6.27s
  System time              0.00s
  Wall time                0.58s

 --------------------------------------------------------------

                    Orbital Energies (a.u.)
 --------------------------------------------------------------

 Alpha MOs
 -- Occupied --
-19.1501 -10.2761  -1.0726  -0.6424  -0.5056  -0.4622  -0.4126  -0.2797
 -- Virtual --
 -0.0585   0.0512   0.1059   0.1097   0.2025   0.2060   0.2584   0.3911
  0.4124   0.4359   0.4861   0.4984   0.5788   0.5950   0.7089   0.7909
  0.8181   0.9497   1.0662   1.3054   1.3544   1.4360   1.4582   1.4875
  1.5758   1.6406   1.7614   1.8961   1.9633   1.9715   2.0341   2.1597
  2.2781   2.4107   2.4946   2.5438   2.5790   2.8724   2.8820   2.9474
  2.9672   2.9936   3.0445   3.1469   3.1528   3.2360   3.5513   3.6910
  3.7088   3.9518   4.0371   4.3734   5.1471   5.1588   5.4813   5.6267
  6.0365   6.2241   6.2819   6.2882   6.3462   6.7338   6.7708   7.0015
 22.3647  43.4777
 --------------------------------------------------------------

          Ground-State Mulliken Net Atomic Charges

     Atom                 Charge (a.u.)
  ----------------------------------------
      1 O                    -0.236145
      2 C                     0.070928
      3 H                     0.082609
      4 H                     0.082609
  ----------------------------------------
  Sum of atomic charges =     0.000000

 -----------------------------------------------------------------
                    Cartesian Multipole Moments
 -----------------------------------------------------------------
    Charge (ESU x 10^10)
                -0.0000
    Dipole Moment (Debye)
         X       0.0000      Y      -0.0000      Z      -2.3296
       Tot       2.3296
    Quadrupole Moments (Debye-Ang)
        XX     -11.6903     XY      -0.0000     YY     -11.6944
        XZ       0.0000     YZ      -0.0000     ZZ     -12.2628
    Octopole Moments (Debye-Ang^2)
       XXX      -0.0000    XXY       0.0000    XYY       0.0000
       YYY       0.0000    XXZ       0.8466    XYZ      -0.0000
       YYZ      -0.1306    XZZ       0.0000    YZZ       0.0000
       ZZZ       1.2063
    Hexadecapole Moments (Debye-Ang^3)
      XXXX     -10.5155   XXXY       0.0000   XXYY      -5.2239
      XYYY      -0.0000   YYYY     -19.1883   XXXZ       0.0000
      XXYZ      -0.0000   XYYZ      -0.0000   YYYZ      -0.0000
      XXZZ      -9.4060   XYZZ      -0.0000   YYZZ     -10.6721
      XZZZ      -0.0000   YZZZ      -0.0000   ZZZZ     -46.3776
 -----------------------------------------------------------------
 Calculating analytic gradient of the CIS energy
 CIS relaxed dipole moment
            1
    1   0.0000000
    2   0.0000000
    3   0.6032260
	Magnitude:	 0.603 au	 1.533 Debye
 CIS 2 State Energy is -114.2625616794
 Gradient of the state energy (including CIS Excitation Energy)
            1           2           3           4
    1   0.0000000  -0.0000000  -0.0000000   0.0000000
    2   0.0000000  -0.0000000  -0.0339143   0.0339143
    3   0.0064212  -0.0268377   0.0102082   0.0102082
 Gradient time:  CPU 1.84 s  wall 0.32 s
 Total job time:  1.70s(wall), 14.15s(cpu) 
 Wed May 25 18:19:39 2022

        *************************************************************
        *                                                           *
        *  Thank you very much for using Q-Chem.  Have a nice day.  *
        *                                                           *
        *************************************************************


 
User input: 2 of 2 
 
                  Welcome to Q-Chem
     A Quantum Leap Into The Future Of Chemistry


 Q-Chem 5.4 (devel), Q-Chem, Inc., Pleasanton, CA (2021)

 E. Epifanovsky,  A. T. B. Gilbert,  Xintian Feng,  Joonho Lee,  Yuezhi Mao,  
 N. Mardirossian,  P. Pokhilko,  A. White,  M. Wormit,  M. P. Coons,  
 A. L. Dempwolff,  Zhengting Gan,  D. Hait,  P. R. Horn,  L. D. Jacobson,  
 I. Kaliman,  J. Kussmann,  A. W. Lange,  Ka Un Lao,  D. S. Levine,  Jie Liu,  
 S. C. McKenzie,  A. F. Morrison,  K. Nanda,  F. Plasser,  D. R. Rehn,  
 M. L. Vidal,  Zhi-Qiang You,  Ying Zhu,  B. Alam,  B. Albrecht,  
 A. Aldossary,  E. Alguire,  J. H. Andersen,  D. Barton,  K. Begam,  A. Behn,  
 Y. A. Bernard,  E. J. Berquist,  H. Burton,  A. Carreras,  K. Carter-Fenk,  
 Romit Chakraborty,  A. D. Chien,  K. D. Closser,  V. Cofer-Shabica,  
 S. Dasgupta,  Jia Deng,  M. de Wergifosse,  M. Diedenhofen,  Hainam Do,  
 S. Ehlert,  Po-Tung Fang,  S. Fatehi,  Qingguo Feng,  T. Friedhoff,  
 J. Gayvert,  Qinghui Ge,  G. Gidofalvi,  M. Goldey,  J. Gomes,  
 C. Gonzalez-Espinoza,  S. Gulania,  A. Gunina,  M. W. D. Hanson-Heine,  
 P. H. P. Harbach,  A. W. Hauser,  M. F. Herbst,  M. Hernandez Vera,  
 M. Hodecker,  Z. C. Holden,  S. Houck,  Xunkun Huang,  Kerwin Hui,  
 B. C. Huynh,  M. Ivanov,  Hyunjun Ji,  Hanjie Jiang,  B. Kaduk,  S. Kaehler,  
 K. Khistyaev,  Jaehoon Kim,  P. Klunzinger,  Z. Koczor-Benda,  
 Joong Hoon Koh,  D. Kosenkov,  L. Koulias,  T. Kowalczyk,  C. M. Krauter,  
 K. Kue,  A. Kunitsa,  T. Kus,  A. Landau,  K. V. Lawler,  D. Lefrancois,  
 S. Lehtola,  Rain Li,  Yi-Pei Li,  Jiashu Liang,  M. Liebenthal,  
 Hung-Hsuan Lin,  You-Sheng Lin,  Fenglai Liu,  Kuan-Yu Liu,  
 M. Loipersberger,  A. Luenser,  A. Manjanath,  P. Manohar,  E. Mansoor,  
 S. F. Manzer,  Shan-Ping Mao,  A. V. Marenich,  T. Markovich,  S. Mason,  
 S. A. Maurer,  P. F. McLaughlin,  M. F. S. J. Menger,  J.-M. Mewes,  
 S. A. Mewes,  P. Morgante,  J. W. Mullinax,  K. J. Oosterbaan,  G. Paran,  
 Alexander C. Paul,  Suranjan K. Paul,  F. Pavosevic,  Zheng Pei,  S. Prager,  
 E. I. Proynov,  E. Ramos,  B. Rana,  A. E. Rask,  A. Rettig,  R. M. Richard,  
 F. Rob,  E. Rossomme,  T. Scheele,  M. Scheurer,  M. Schneider,  
 N. Sergueev,  S. M. Sharada,  W. Skomorowski,  D. W. Small,  C. J. Stein,  
 Yu-Chuan Su,  E. J. Sundstrom,  Zhen Tao,  J. Thirman,  T. Tsuchimochi,  
 N. M. Tubman,  S. P. Veccham,  O. Vydrov,  J. Wenzel,  J. Witte,  A. Yamada,  
 Kun Yao,  S. Yeganeh,  S. R. Yost,  A. Zech,  Igor Ying Zhang,  Xing Zhang,  
 Yu Zhang,  D. Zuev,  A. Aspuru-Guzik,  A. T. Bell,  N. A. Besley,  
 K. B. Bravaya,  B. R. Brooks,  D. Casanova,  Jeng-Da Chai,  S. Coriani,  
 C. J. Cramer,  A. E. DePrince, III,  R. A. DiStasio Jr.,  A. Dreuw,  
 B. D. Dunietz,  T. R. Furlani,  W. A. Goddard III,  S. Grimme,  
 S. Hammes-Schiffer,  T. Head-Gordon,  W. J. Hehre,  Chao-Ping Hsu,  
 T.-C. Jagau,  Yousung Jung,  A. Klamt,  Jing Kong,  D. S. Lambrecht,  
 WanZhen Liang,  N. J. Mayhall,  C. W. McCurdy,  J. B. Neaton,  T. Neudecker,  
 C. Ochsenfeld,  J. A. Parkhill,  R. Peverati,  V. A. Rassolov,  Yihan Shao,  
 L. V. Slipchenko,  R. P. Steele,  J. E. Subotnik,  A. J. W. Thom,  
 A. Tkatchenko,  D. G. Truhlar,  T. Van Voorhis,  T. A. Wesolowski,  
 K. B. Whaley,  H. L. Woodcock III,  P. M. Zimmerman,  S. Faraji,  
 P. M. W. Gill,  M. Head-Gordon,  J. M. Herbert,  A. I. Krylov

 Additional authors since Version 5.4.0: 
 Chandrima Chakravarty,  L. Cunha,  R. Kang,  Yongbin Kim,  S. Kotaru,  
 Shaozhi Li,  Xiangyuan Li,  F. Matz,  V. Parravicini,  Haisheng Ren,  
 Hengyuan Shen,  Yingli Su,  Hung-Yi Tsai,  C. Utku,  Fan Wang,  Jeff Yang,  
 F. Zeller

 Contributors to earlier versions of Q-Chem not listed above: 
 R. D. Adamson,  B. Austin,  R. Baer,  J. Baker,  G. J. O. Beran,  
 K. Brandhorst,  S. T. Brown,  E. F. C. Byrd,  Arup K. Chakraborty,  
 G. K. L. Chan,  Chun-Min Chang,  Yunqing Chen,  C.-L. Cheng,  
 Siu Hung Chien,  D. M. Chipman,  D. L. Crittenden,  H. Dachsel,  
 R. J. Doerksen,  A. D. Dutoi,  R. G. Edgar,  J. Fosso-Tande,  
 L. Fusti-Molnar,  D. Ghosh,  A. Ghysels,  A. Golubeva-Zadorozhnaya,  
 J. Gonthier,  M. S. Gordon,  S. R. Gwaltney,  G. Hawkins,  J. E. Herr,  
 A. Heyden,  S. Hirata,  E. G. Hohenstein,  G. Kedziora,  F. J. Keil,  
 C. Kelley,  Jihan Kim,  R. A. King,  R. Z. Khaliullin,  P. P. Korambath,  
 W. Kurlancheek,  A. Laurent,  A. M. Lee,  M. S. Lee,  S. V. Levchenko,  
 Ching Yeh Lin,  D. Liotard,  E. Livshits,  R. C. Lochan,  I. Lotan,  
 L. A. Martinez-Martinez,  P. E. Maslen,  N. Nair,  D. P. O'Neill,  
 D. Neuhauser,  E. Neuscamman,  C. M. Oana,  R. Olivares-Amaya,  R. Olson,  
 T. M. Perrine,  B. Peters,  P. A. Pieniazek,  A. Prociuk,  Y. M. Rhee,  
 J. Ritchie,  M. A. Rohrdanz,  E. Rosta,  N. J. Russ,  H. F. Schaefer III,  
 M. W. Schmidt,  N. E. Schultz,  S. Sharma,  N. Shenvi,  C. D. Sherrill,  
 A. C. Simmonett,  A. Sodt,  T. Stein,  D. Stuck,  K. S. Thanthiriwatte,  
 V. Vanovschi,  L. Vogt,  Tao Wang,  A. Warshel,  M. A. Watson,  
 C. F. Williams,  Q. Wu,  X. Xu,  Jun Yang,  W. Zhang,  Yan Zhao

   Please cite Q-Chem as follows:
  "Software for the frontiers of quantum chemistry:
   An overview of developments in the Q-Chem 5 package"
   J. Chem. Phys. 155, 084801 (2021)
   https://doi.org/10.1063/5.0055522 (open access)

 Q-Chem 5.4.2 for Intel X86 EM64T Linux

 Parts of Q-Chem use Armadillo 9.900.5 (Nocturnal Misbehaviour).
 http://arma.sourceforge.net/

 Q-Chem begins on Wed May 25 18:19:39 2022  

orc42
 Host: 0

     Scratch files written to /scratch/wojcik/qchem780//
 Processing $rem in /qcsoftware/qchem_latest/config/preferences:
 Processing $rem in /home/users/wojcik/.qchemrc:

 Checking the input file for inconsistencies... 	...done.

--------------------------------------------------------------
User input:
--------------------------------------------------------------

$molecule
read !VG approximation uses the same geometry for ground and excited states
$end

$rem
   JOBTYPE            freq
   METHOD             b3lyp
   BASIS              def2-TZVP
   SYM_IGNORE         true
   VIBRONIC_SPECTRA   1 !enables vibronic_spectra and reads saved information, 1 = OPA, 2 = OPE, 3 = RRS
$end

$vibronic
   model        3 ! 1 = FC, 2 = FCHT, 3 = VG
   freq_range   60000. 80000. 5. ! minimum, maximum and step size, in cm−1.
   time_range   1. 40000 ! time step size in a.u. and the number of steps
   damping      40. ! defaults to 300.
   temperature  300 ! [K], defaults to 298.15
$end
--------------------------------------------------------------
 ----------------------------------------------------------------
             Standard Nuclear Orientation (Angstroms)
    I     Atom           X                Y                Z
 ----------------------------------------------------------------
    1      O       0.0000000000     0.0000000000     0.6637077571
    2      C       0.0000000000     0.0000000000    -0.5351027012
    3      H       0.0000000000     0.9394749352    -1.1220697679
    4      H       0.0000000000    -0.9394749352    -1.1220697679
 ----------------------------------------------------------------
 Nuclear Repulsion Energy =          31.39812520 hartrees
 There are        8 alpha and        8 beta electrons
 Requested basis set is def2-TZVP
 There are 30 shells and 74 basis functions

 Total QAlloc Memory Limit   2000 MB
 Mega-Array Size       188 MB
 MEM_STATIC part       192 MB


                       Distance Matrix (Angstroms)
             O (  1)   C (  2)   H (  3)
   C (  2)  1.198810
   H (  3)  2.017824  1.107765
   H (  4)  2.017824  1.107765  1.878950

 A cutoff of  1.0D-12 yielded    464 shell pairs
 There are      2880 function pairs (      3743 Cartesian)
 Smallest overlap matrix eigenvalue = 1.43E-03
 Guess from superposition of atomic densities
 Warning:  Energy on first SCF cycle will be non-variational
 SAD guess density has 16.000000 electrons

 -----------------------------------------------------------------------
  General SCF calculation program by
  Eric Jon Sundstrom, Paul Horn, Yuezhi Mao, Dmitri Zuev, Alec White,
  David Stuck, Shaama M.S., Shane Yost, Joonho Lee, David Small,
  Daniel Levine, Susi Lehtola, Hugh Burton, Evgeny Epifanovsky,
  Bang C. Huynh
 -----------------------------------------------------------------------
 Exchange:     0.2000 Hartree-Fock + 0.0800 Slater + 0.7200 B88
 Correlation:  0.1900 VWN1RPA + 0.8100 LYP
 Using SG-1 standard quadrature grid
 using 20 threads for integral computing
 -------------------------------------------------------
 OpenMP Integral computing Module                
 Release: version 1.0, May 2013, Q-Chem Inc. Pittsburgh 
 -------------------------------------------------------
 A restricted SCF calculation will be
 performed using DIIS
 SCF converges when DIIS error is below 1.0e-08
 ---------------------------------------
  Cycle       Energy         DIIS error
 ---------------------------------------
    1    -114.7224216440      6.09e-02  
    2    -114.4966447242      1.03e-02  
    3    -114.2976721770      2.21e-02  
    4    -114.5524898003      1.64e-03  
    5    -114.5540563926      5.91e-04  
    6    -114.5542612501      7.45e-05  
    7    -114.5542641819      1.17e-05  
    8    -114.5542642572      5.37e-07  
    9    -114.5542642574      2.54e-07  
   10    -114.5542642574      9.73e-09  Convergence criterion met
 ---------------------------------------
 SCF time:   CPU 5.05s  wall 1.00s 
 SCF   energy in the final basis set =     -114.5542642574
 Total energy in the final basis set =     -114.5542642574

 --------------------------------------------------------------

                    Orbital Energies (a.u.)
 --------------------------------------------------------------

 Alpha MOs
 -- Occupied --
-19.1501 -10.2761  -1.0726  -0.6424  -0.5056  -0.4622  -0.4126  -0.2797
 -- Virtual --
 -0.0585   0.0512   0.1059   0.1097   0.2025   0.2060   0.2584   0.3911
  0.4124   0.4359   0.4861   0.4984   0.5788   0.5950   0.7089   0.7909
  0.8181   0.9497   1.0662   1.3054   1.3544   1.4360   1.4582   1.4875
  1.5758   1.6406   1.7614   1.8961   1.9633   1.9715   2.0341   2.1597
  2.2781   2.4107   2.4946   2.5438   2.5790   2.8724   2.8820   2.9474
  2.9672   2.9936   3.0445   3.1469   3.1528   3.2360   3.5513   3.6910
  3.7088   3.9518   4.0371   4.3734   5.1471   5.1588   5.4813   5.6267
  6.0365   6.2241   6.2819   6.2882   6.3462   6.7338   6.7708   7.0015
 22.3647  43.4777
 --------------------------------------------------------------

          Ground-State Mulliken Net Atomic Charges

     Atom                 Charge (a.u.)
  ----------------------------------------
      1 O                    -0.236145
      2 C                     0.070928
      3 H                     0.082609
      4 H                     0.082609
  ----------------------------------------
  Sum of atomic charges =     0.000000

 -----------------------------------------------------------------
                    Cartesian Multipole Moments
 -----------------------------------------------------------------
    Charge (ESU x 10^10)
                 0.0000
    Dipole Moment (Debye)
         X      -0.0000      Y      -0.0000      Z      -2.3296
       Tot       2.3296
    Quadrupole Moments (Debye-Ang)
        XX     -11.6903     XY       0.0000     YY     -11.6944
        XZ      -0.0000     YZ       0.0000     ZZ     -12.2628
    Octopole Moments (Debye-Ang^2)
       XXX      -0.0000    XXY       0.0000    XYY       0.0000
       YYY      -0.0000    XXZ       0.8466    XYZ      -0.0000
       YYZ      -0.1306    XZZ      -0.0000    YZZ       0.0000
       ZZZ       1.2063
    Hexadecapole Moments (Debye-Ang^3)
      XXXX     -10.5155   XXXY       0.0000   XXYY      -5.2239
      XYYY       0.0000   YYYY     -19.1883   XXXZ      -0.0000
      XXYZ       0.0000   XYYZ      -0.0000   YYYZ       0.0000
      XXZZ      -9.4060   XYZZ       0.0000   YYZZ     -10.6721
      XZZZ      -0.0000   YZZZ       0.0000   ZZZZ     -46.3776
 -----------------------------------------------------------------
 Calculating MO derivatives via CPSCF
    1     0    15    0.0670507  
    2     0    15    0.0120287  
    3     0    15    0.0011814  
    4     0    15    0.0000932  
    5    13     2    0.0000047  
    6    15     0    0.0000002  Converged
 Time for AOints: 0.7 s (CPU) 0.1 s (wall)
 ------------------------------------------------------------------------------
                     AOints        : Timing summary (seconds)
 ------------------------------------------------------------------------------
     job step          cpu (% of tot)      sys (% of tot)     wall (% of tot)
 ------------------------------------------------------------------------------
  AOints            0.7419E+00 ( 4.3)   0.1000E-05 ( 6.7)   0.1205E+00 ( 9.6)
 ------------------------------------------------------------------------------
   Grand Totals     0.1724E+02          0.1500E-04          0.1258E+01
 ------------------------------------------------------------------------------
 Polarizability Matrix (a.u.)
            1           2           3
    1 -10.1604948   0.0000000   0.0000000
    2   0.0000000 -16.2929727   0.0000000
    3   0.0000000   0.0000000 -21.0480758
 Calculating analytic Hessian of the SCF energy

 Direct stationary perturbation theory relativistic correction:

 rels  =       0.038761753909
 relv  =      -0.153079538048
 rel2e =       0.048812614700
 E_rel =      -0.065505169438

 **********************************************************************
 **                                                                  **
 **                       VIBRATIONAL ANALYSIS                       **
 **                       --------------------                       **
 **                                                                  **
 **        VIBRATIONAL FREQUENCIES (CM**-1) AND NORMAL MODES         **
 **     FORCE CONSTANTS (mDYN/ANGSTROM) AND REDUCED MASSES (AMU)     **
 **                  INFRARED INTENSITIES (KM/MOL)                   **
 **                                                                  **
 **********************************************************************


 Mode:                 1                      2                      3
 Frequency:      1200.25                1268.09                1534.90
 Force Cnst:      1.1615                 1.2740                 1.5392
 Red. Mass:       1.3685                 1.3446                 1.1089
 IR Active:          YES                    YES                    YES
 IR Intens:        3.267                 11.967                 10.285
 Raman Active:       YES                    YES                    YES
               X      Y      Z        X      Y      Z        X      Y      Z
 O          0.043 -0.000 -0.000   -0.000 -0.080  0.000   -0.000  0.000 -0.082
 C         -0.174  0.000  0.000    0.000  0.148 -0.000    0.000 -0.000  0.006
 H          0.696 -0.000 -0.000   -0.000 -0.250 -0.651   -0.000  0.350  0.612
 H          0.696 -0.000  0.000   -0.000 -0.250  0.651   -0.000 -0.350  0.612
 TransDip   0.058  0.000  0.000   -0.000  0.111 -0.000   -0.000 -0.000  0.103

 Mode:                 4                      5                      6
 Frequency:      1819.44                2880.80                2936.69
 Force Cnst:     14.3576                 5.0966                 5.6951
 Red. Mass:       7.3613                 1.0423                 1.1208
 IR Active:          YES                    YES                    YES
 IR Intens:      113.447                 67.830                133.364
 Raman Active:       YES                    YES                    YES
               X      Y      Z        X      Y      Z        X      Y      Z
 O         -0.000 -0.000 -0.413   -0.000  0.000 -0.002   -0.000  0.001  0.000
 C          0.000  0.000  0.588    0.000 -0.000 -0.056    0.000 -0.101  0.000
 H         -0.000 -0.437 -0.226   -0.000 -0.612  0.351   -0.000  0.599 -0.369
 H         -0.000  0.437 -0.226   -0.000  0.612  0.351   -0.000  0.599  0.369
 TransDip  -0.000  0.000  0.341   -0.000 -0.000 -0.264   -0.000 -0.370  0.000

 STANDARD THERMODYNAMIC QUANTITIES AT   298.15 K  AND     1.00 ATM

   This Molecule has  0 Imaginary Frequencies
   Zero point vibrational energy:       16.640 kcal/mol

   Atom    1 Element O  Has Mass   15.99491
   Atom    2 Element C  Has Mass   12.00000
   Atom    3 Element H  Has Mass    1.00783
   Atom    4 Element H  Has Mass    1.00783
   Molecular Mass:    30.010570 amu
   Principal axes and moments of inertia in amu*Bohr^2:
                             1           2           3
    Eigenvalues --        6.35310    46.04958    52.40268
          X               0.00000     0.00000     1.00000
          Y               0.00000     1.00000     0.00000
          Z               1.00000     0.00000     0.00000
   Rotational Symmetry Number is   1
   The Molecule is an Asymmetric Top
   Translational Enthalpy:        0.889 kcal/mol
   Rotational Enthalpy:           0.889 kcal/mol
   Vibrational Enthalpy:         16.662 kcal/mol
   gas constant (RT):             0.592 kcal/mol
   Translational Entropy:        36.130  cal/mol.K
   Rotational Entropy:           17.379  cal/mol.K
   Vibrational Entropy:           0.086  cal/mol.K

   Total Enthalpy:               19.032 kcal/mol
   Total Entropy:                53.595  cal/mol.K

 --------------------------------------------
 Vibrational Resolved Spectra Simulation
 spectra saved in xxx_spectra.dat
 log of calculation in vibronic_spectra.log
 --------------------------------------------
 Total job time:  8.34s(wall), 35.12s(cpu) 
 Wed May 25 18:19:47 2022

        *************************************************************
        *                                                           *
        *  Thank you very much for using Q-Chem.  Have a nice day.  *
        *                                                           *
        *************************************************************


