 Distributed Data Interface kickoff program.
 Initiating 1 compute processes on 1 nodes to run the following command:
 /home/qcsoftware/gamess/Linux64//gamess.00.x /home/users/webmo/webmo/vadim/7026/input 

          ******************************************************
          *         GAMESS VERSION = 27 JUN 2005 (R2)          *
          *             FROM IOWA STATE UNIVERSITY             *
          * M.W.SCHMIDT, K.K.BALDRIDGE, J.A.BOATZ, S.T.ELBERT, *
          *   M.S.GORDON, J.H.JENSEN, S.KOSEKI, N.MATSUNAGA,   *
          *          K.A.NGUYEN, S.J.SU, T.L.WINDUS,           *
          *       TOGETHER WITH M.DUPUIS, J.A.MONTGOMERY       *
          *         J.COMPUT.CHEM.  14, 1347-1363(1993)        *
          ***************** AMD 64 BIT VERSION *****************

     SINCE 1993, STUDENTS AND POSTDOCS WORKING AT IOWA STATE UNIVERSITY
     AND ALSO IN THEIR VARIOUS JOBS AFTER LEAVING ISU HAVE MADE IMPORTANT
     CONTRIBUTIONS TO THE CODE:
     IVANA ADAMOVIC, CHRISTINE AIKENS, YURI ALEXEEV, POOJA ARORA, ROB BELL,
     PRADIPTA BANDYOPADHYAY, BRETT BODE, GALINA CHABAN, WEI CHEN,
     CHEOL HO CHOI, PAUL DAY, TIM DUDLEY, DMITRI FEDOROV, GRAHAM FLETCHER,
     MARK FREITAG, KURT GLAESEMANN, GRANT MERRILL, HEATHER NETZLOFF,
     BOSILJKA NJEGIC, RYAN OLSON, MIKE PAK, JIM SHOEMAKER, JIE SONG,
     TETSUYA TAKETSUGU, SIMON WEBB.

     ADDITIONAL CODE HAS BEEN PROVIDED BY COLLABORATORS IN OTHER GROUPS:
     IOWA STATE UNIVERSITY: JOE IVANIC, KLAUS RUEDENBERG
     UNIVERSITY OF TOKYO: KIMIHIKO HIRAO, HARUYUKI NAKANO, TAKAHITO
          NAKAJIMA, TAKAO TSUNEDA, MUNEAKI KAMIYA, SUSUMU YANAGISAWA,
          KIYOSHI YAGI
     UNIVERSITY OF SOUTHERN DENMARK: FRANK JENSEN
     UNIVERSITY OF IOWA: VISVALDAS KAIRYS, HUI LI
     NATIONAL INST. OF STANDARDS AND TECHNOLOGY: WALT STEVENS, DAVID GARMER
     UNIVERSITY OF PISA: BENEDETTA MENNUCCI, JACOPO TOMASI
     UNIVERSITY OF MEMPHIS: HENRY KURTZ, PRAKASHAN KORAMBATH
     UNIVERSITY OF ALBERTA: MARIUSZ KLOBUKOWSKI
     UNIVERSITY OF NEW ENGLAND: MARK SPACKMAN
     MIE UNIVERSITY: HIROAKI UMEDA
     MICHIGAN STATE UNIVERSITY:
          KAROL KOWALSKI, MARTA WLOCH, PIOTR PIECUCH
     UNIVERSITY OF SILESIA: MONIKA MUSIAL, STANISLAW KUCHARSKI
     FACULTES UNIVERSITAIRES NOTRE-DAME DE LA PAIX:
          OLIVIER QUINET, BENOIT CHAMPAGNE
     UNIVERSITY OF CALIFORNIA - SANTA BARBARA: BERNARD KIRTMAN
     INSTITUTE FOR MOLECULAR SCIENCE: KAZUYA ISHIMURA AND SHIGERU NAGASE
     UNIVERSITY OF NOTRE DAME: DAN CHIPMAN
 EXECUTION OF GAMESS BEGUN Mon Sep 28 13:14:50 2009

            ECHO OF THE FIRST FEW INPUT CARDS -
 INPUT CARD> $CONTRL SCFTYP=RHF RUNTYP=HESSIAN                                              
 INPUT CARD>       ICHARG=0 MULT=1 COORD=ZMTMPC $END                                        
 INPUT CARD> $BASIS GBASIS=N311 NGAUSS=6 NDFUNC=1 NPFUNC=1 $END                             
 INPUT CARD> $DATA                                                                          
 INPUT CARD>H2O                                                                             
 INPUT CARD>C1 1                                                                            
 INPUT CARD>O 0.0000000 0 0.0000000 0 0.0000000 0 0 0 0                                     
 INPUT CARD>H 0.9410839 1 0.0000000 0 0.0000000 0 1 0 0                                     
 INPUT CARD>H 0.9410363 1 105.44966 1 0.0000000 0 1 2 0                                     
 INPUT CARD> $END                                                                           
 INPUT CARD>                                                                                
 INPUT CARD>                                                                                

 ..... DONE SETTING UP THE RUN .....
    1000000 WORDS OF MEMORY AVAILABLE

     BASIS OPTIONS
     -------------
     GBASIS=N311         IGAUSS=       6      POLAR=POPN311 
     NDFUNC=       1     NFFUNC=       0     DIFFSP=       F
     NPFUNC=       1      DIFFS=       F


     RUN TITLE
     ---------
 H2O                                                                             

 THE POINT GROUP OF THE MOLECULE IS C1      
 THE ORDER OF THE PRINCIPAL AXIS IS     1

 YOUR FULLY SUBSTITUTED Z-MATRIX IS
 O   
 H      1   0.9410839
 H      1   0.9410363  2  105.4497

 THE MOMENTS OF INERTIA ARE (AMU-ANGSTROM**2)
 IXX=     0.581   IYY=     1.130   IZZ=     1.712

 ATOM      ATOMIC                      COORDINATES (BOHR)
           CHARGE         X                   Y                   Z
 O           8.0    -0.0000130277       -0.1205372395        0.0000000000
 H           1.0     1.4151971296        0.9564278022        0.0000000000
 H           1.0    -1.4149903701        0.9565851692        0.0000000000

          INTERNUCLEAR DISTANCES (ANGS.)
          ------------------------------

                    O              H              H         

  1  O               0.0000000      0.9410839 *    0.9410363 *  
  2  H               0.9410839 *    0.0000000      1.4976708 *  
  3  H               0.9410363 *    1.4976708 *    0.0000000    

  * ... LESS THAN  3.000


     ATOMIC BASIS SET
     ----------------
 THE CONTRACTED PRIMITIVE FUNCTIONS HAVE BEEN UNNORMALIZED
 THE CONTRACTED BASIS FUNCTIONS ARE NOW NORMALIZED TO UNITY

 SHELL TYPE PRIMITIVE    EXPONENT          CONTRACTION COEFFICIENTS

 O         

   1   S    1          8588.5000000      0.001895150083
   1   S    2          1297.2300000      0.014385900631
   1   S    3           299.2960000      0.070732003103
   1   S    4            87.3771000      0.240001010530
   1   S    5            25.6789000      0.594797026097
   1   S    6             3.7400400      0.280802012320

   2   L    7            42.1175000      0.113889012440      0.036511397380
   2   L    8             9.6283700      0.920811100576      0.237152982984
   2   L    9             2.8533200     -0.003274470358      0.819701941186

   3   L   10             0.9056610      1.000000000000      1.000000000000

   4   L   11             0.2556110      1.000000000000      1.000000000000

   5   D   12             1.2920000      1.000000000000

 H         

   6   S   13            33.8650000      0.025493814541
   6   S   14             5.0947900      0.190373108582
   6   S   15             1.1587900      0.852161486043

   7   S   16             0.3258400      1.000000000000

   8   S   17             0.1027410      1.000000000000

   9   P   18             0.7500000      1.000000000000

 H         

  10   S   19            33.8650000      0.025493814541
  10   S   20             5.0947900      0.190373108582
  10   S   21             1.1587900      0.852161486043

  11   S   22             0.3258400      1.000000000000

  12   S   23             0.1027410      1.000000000000

  13   P   24             0.7500000      1.000000000000

 TOTAL NUMBER OF BASIS SET SHELLS             =   13
 NUMBER OF CARTESIAN GAUSSIAN BASIS FUNCTIONS =   31
 NUMBER OF ELECTRONS                          =   10
 CHARGE OF MOLECULE                           =    0
 SPIN MULTIPLICITY                            =    1
 NUMBER OF OCCUPIED ORBITALS (ALPHA)          =    5
 NUMBER OF OCCUPIED ORBITALS (BETA )          =    5
 TOTAL NUMBER OF ATOMS                        =    3
 THE NUCLEAR REPULSION ENERGY IS        9.3504591612

     $CONTRL OPTIONS
     ---------------
 SCFTYP=RHF          RUNTYP=HESSIAN      EXETYP=RUN     
 MPLEVL=       0     CITYP =NONE         CCTYP =NONE         VBTYP =NONE    
 MULT  =       1     ICHARG=       0     NZVAR =       0     COORD =ZMTMPC  
 PP    =NONE         RELWFN=NONE         LOCAL =NONE         NUMGRD=       F
 ISPHER=      -1     NOSYM =       0     MAXIT =      30     UNITS =ANGS    
 PLTORB=       F     MOLPLT=       F     AIMPAC=       F     FRIEND=        
 NPRINT=       7     IREST =       0     GEOM  =INPUT   
 NORMF =       0     NORMP =       0     ITOL  =      20     ICUT  =       9
 INTTYP=BEST         GRDTYP=BEST         QMTTOL= 1.0E-06

     $SYSTEM OPTIONS
     ---------------
  REPLICATED MEMORY=     1000000 WORDS (ON EVERY NODE).
 DISTRIBUTED MEMDDI=           0 MILLION WORDS IN AGGREGATE,
 MEMDDI DISTRIBUTED OVER   1 PROCESSORS IS           0 WORDS/PROCESSOR.
 TOTAL MEMORY REQUESTED ON EACH PROCESSOR=     1000000 WORDS.
 TIMLIM=      525600.00 MINUTES, OR   365.00 DAYS.
 PARALL= F  BALTYP=  NXTVAL  KDIAG=    0  COREFL= F

          ----------------
          PROPERTIES INPUT
          ----------------

     MOMENTS            FIELD           POTENTIAL          DENSITY
 IEMOM =       1   IEFLD =       0   IEPOT =       0   IEDEN =       0
 WHERE =COMASS     WHERE =NUCLEI     WHERE =NUCLEI     WHERE =NUCLEI  
 OUTPUT=BOTH       OUTPUT=BOTH       OUTPUT=BOTH       OUTPUT=BOTH    
 IEMINT=       0   IEFINT=       0                     IEDINT=       0
                                                       MORB  =       0
          EXTRAPOLATION IN EFFECT
          SOSCF IN EFFECT

     -------------------------------
     INTEGRAL TRANSFORMATION OPTIONS
     -------------------------------
     NWORD  =       0     CUTOFF = 1.0E-09
     MPTRAN =       0     DIRTRF =       F
     AOINTS =DUP     

          ----------------------
          INTEGRAL INPUT OPTIONS
          ----------------------
 NOPK  =       1 NORDER=       0 SCHWRZ=       F

     ------------------------------------------
     THE POINT GROUP IS C1 , NAXIS= 1, ORDER= 1
     ------------------------------------------

     DIMENSIONS OF THE SYMMETRY SUBSPACES ARE
 A   =   31

 ..... DONE SETTING UP THE RUN .....
 STEP CPU TIME =     0.00 TOTAL CPU TIME =        0.0 (    0.0 MIN)
 TOTAL WALL CLOCK TIME=        0.0 SECONDS, CPU UTILIZATION IS 100.00%

     ---------------------------------
     HESSIAN MATRIX CONTROL PARAMETERS
     ---------------------------------
     METHOD=ANALYTIC   NVIB  =       1   VIBSIZ= 0.01000
     RDHESS=       F   PURIFY=       F   PRTIFC=       F
     VIBANL=       T   DECOMP=       F   PROJCT=       F
     SCLFAC= 1.00000   PRTSCN=       F   NPRT  =       0
     PULCOR=       F   NPUN  =       0   REDOVB=       T
     THERMOCHEMISTRY WILL BE PRINTED FOR    1 TEMPERATURES:
      298.15000

     ------------------------------
     CPHF RESPONSE SOLUTION OPTIONS
     ------------------------------
     POLAR  =       F     NWORD  =       0
     CPHF   =AO      

          ********************
          1 ELECTRON INTEGRALS
          ********************
 ...... END OF ONE-ELECTRON INTEGRALS ......
 STEP CPU TIME =     0.00 TOTAL CPU TIME =        0.0 (    0.0 MIN)
 TOTAL WALL CLOCK TIME=        0.0 SECONDS, CPU UTILIZATION IS 100.00%

          -------------
          GUESS OPTIONS
          -------------
          GUESS =HUCKEL            NORB  =       0          NORDER=       0
          MIX   =       F          PRTMO =       F          PUNMO =       F
          TOLZ  = 1.0E-08          TOLE  = 1.0E-05
          SYMDEN=       F          PURIFY=       F

 INITIAL GUESS ORBITALS GENERATED BY HUCKEL   ROUTINE.
 HUCKEL GUESS REQUIRES      9457 WORDS.

 SYMMETRIES FOR INITIAL GUESS ORBITALS FOLLOW.   BOTH SET(S).
     5 ORBITALS ARE OCCUPIED (    1 CORE ORBITALS).
     2=A        3=A        4=A        5=A        6=A        7=A        8=A   
     9=A       10=A       11=A       12=A       13=A       14=A       15=A   
 ...... END OF INITIAL ORBITAL SELECTION ......
 STEP CPU TIME =     0.00 TOTAL CPU TIME =        0.0 (    0.0 MIN)
 TOTAL WALL CLOCK TIME=        0.0 SECONDS, CPU UTILIZATION IS 100.00%

                    ----------------------
                    AO INTEGRAL TECHNOLOGY
                    ----------------------
     S,P,L SHELL ROTATED AXIS INTEGRALS, REPROGRAMMED BY
        KAZUYA ISHIMURA (IMS) AND JOSE SIERRA (SYNSTAR).
     S,P,D,L SHELL ROTATED AXIS INTEGRALS PROGRAMMED BY
        KAZUYA ISHIMURA (INSTITUTE FOR MOLECULAR SCIENCE).
     S,P,D,F,G SHELL TO TOTAL QUARTET ANGULAR MOMENTUM SUM 5,
        ERIC PROGRAM BY GRAHAM FLETCHER (ELORET AND NASA ADVANCED
        SUPERCOMPUTING DIVISION, AMES RESEARCH CENTER).
     S,P,D,F,G,L SHELL GENERAL RYS QUADRATURE PROGRAMMED BY
        MICHEL DUPUIS (PACIFIC NORTHWEST NATIONAL LABORATORY).

          --------------------
          2 ELECTRON INTEGRALS
          --------------------

 THE -PK- OPTION IS OFF, THE INTEGRALS ARE NOT IN SUPERMATRIX FORM.
 STORING   15000 INTEGRALS/RECORD ON DISK, USING 16 BYTES/INTEGRAL.
 TWO ELECTRON INTEGRAL EVALUATION REQUIRES   90487 WORDS OF MEMORY.
 II,JST,KST,LST =  1  1  1  1 NREC =         1 INTLOC =    1
 II,JST,KST,LST =  2  1  1  1 NREC =         1 INTLOC =    2
 II,JST,KST,LST =  3  1  1  1 NREC =         1 INTLOC =   34
 II,JST,KST,LST =  4  1  1  1 NREC =         1 INTLOC =  214
 II,JST,KST,LST =  5  1  1  1 NREC =         1 INTLOC =  776
 II,JST,KST,LST =  6  1  1  1 NREC =         1 INTLOC = 2864
 II,JST,KST,LST =  7  1  1  1 NREC =         1 INTLOC = 5149
 II,JST,KST,LST =  8  1  1  1 NREC =         1 INTLOC = 7835
 II,JST,KST,LST =  9  1  1  1 NREC =         1 INTLOC =10970
 II,JST,KST,LST = 10  1  1  1 NREC =         2 INTLOC = 6955
 II,JST,KST,LST = 11  1  1  1 NREC =         2 INTLOC =12090
 II,JST,KST,LST = 12  1  1  1 NREC =         3 INTLOC = 2913
 II,JST,KST,LST = 13  1  1  1 NREC =         3 INTLOC = 9487
 TOTAL NUMBER OF NONZERO TWO-ELECTRON INTEGRALS =               61100
          5 INTEGRAL RECORDS WERE STORED ON DISK FILE  8.
  ...... END OF TWO-ELECTRON INTEGRALS .....
 STEP CPU TIME =     0.02 TOTAL CPU TIME =        0.0 (    0.0 MIN)
 TOTAL WALL CLOCK TIME=        0.0 SECONDS, CPU UTILIZATION IS 100.00%

          --------------------------
                 RHF SCF CALCULATION
          --------------------------

     NUCLEAR ENERGY =         9.3504591612
     MAXIT =   30     NPUNCH=    2
     EXTRAP=T  DAMP=F  SHIFT=F  RSTRCT=F  DIIS=F  DEM=F  SOSCF=T
     DENSITY MATRIX CONV=  1.00E-05
     SOSCF WILL OPTIMIZE     130 ORBITAL ROTATIONS, SOGTOL=   0.250
     MEMORY REQUIRED FOR RHF STEP=     37681 WORDS.

 ITER EX DEM    TOTAL ENERGY       E CHANGE  DENSITY CHANGE     ORB. GRAD
   1  0  0      -75.7718462633   -75.7718462633   0.189046436   0.000000000
          ---------------START SECOND ORDER SCF---------------
   2  1  0      -76.0334304065    -0.2615841432   0.064798291   0.039603352
   3  2  0      -76.0458574399    -0.0124270333   0.037780385   0.012546150
   4  3  0      -76.0469969328    -0.0011394929   0.005922390   0.004243768
   5  4  0      -76.0470831823    -0.0000862496   0.001372009   0.001102277
   6  5  0      -76.0470912697    -0.0000080873   0.000318546   0.000306756
   7  6  0      -76.0470919974    -0.0000007277   0.000114004   0.000055231
   8  7  0      -76.0470920196    -0.0000000223   0.000015384   0.000010931
   9  8  0      -76.0470920206    -0.0000000010   0.000007921   0.000004145
  10  9  0      -76.0470920207    -0.0000000001   0.000001123   0.000000757

          -----------------
          DENSITY CONVERGED
          -----------------
     TIME TO FORM FOCK OPERATORS=       0.0 SECONDS (       0.0 SEC/ITER)
     TIME TO SOLVE SCF EQUATIONS=       0.0 SECONDS (       0.0 SEC/ITER)

 FINAL RHF ENERGY IS      -76.0470920207 AFTER  10 ITERATIONS

          ------------
          EIGENVECTORS
          ------------

                      1          2          3          4          5
                  -20.5419    -1.3492    -0.7172    -0.5730    -0.5008
                     A          A          A          A          A   
    1  O  1  S    0.551466  -0.113335  -0.000003   0.038199   0.000000
    2  O  1  S    0.471399  -0.188653  -0.000006   0.066360   0.000000
    3  O  1  X    0.000000  -0.000002   0.227390   0.000026   0.000000
    4  O  1  Y    0.001827   0.037918  -0.000028   0.255541   0.000000
    5  O  1  Z    0.000000   0.000000   0.000000   0.000000   0.291722
    6  O  1  S    0.006240   0.536093   0.000017  -0.200044   0.000000
    7  O  1  X    0.000000  -0.000002   0.348917   0.000040   0.000000
    8  O  1  Y   -0.000761   0.063606  -0.000042   0.379063   0.000000
    9  O  1  Z    0.000000   0.000000   0.000000   0.000000   0.436704
   10  O  1  S   -0.000232   0.370441   0.000031  -0.339090   0.000000
   11  O  1  X    0.000000   0.000000   0.211786   0.000034   0.000000
   12  O  1  Y    0.000083   0.020688  -0.000026   0.339693   0.000000
   13  O  1  Z    0.000000   0.000000   0.000000   0.000000   0.465846
   14  O  1 XX   -0.000609   0.007297   0.000003  -0.000274   0.000000
   15  O  1 YY   -0.000495   0.004381  -0.000004   0.020600   0.000000
   16  O  1 ZZ   -0.000310  -0.006863   0.000001  -0.009534   0.000000
   17  O  1 XY    0.000000  -0.000002   0.029326   0.000002   0.000000
   18  O  1 XZ    0.000000   0.000000   0.000000   0.000000   0.000001
   19  O  1 YZ    0.000000   0.000000   0.000000   0.000000   0.017132
   20  H  2  S    0.000236   0.096531   0.151238   0.087510   0.000000
   21  H  2  S    0.000204   0.080915   0.212236   0.145282   0.000000
   22  H  2  S    0.000029  -0.002276   0.054521   0.028409   0.000000
   23  H  2  X   -0.000188  -0.023432  -0.018695  -0.028809   0.000000
   24  H  2  Y   -0.000098  -0.014093  -0.025658   0.010242   0.000000
   25  H  2  Z    0.000000   0.000000   0.000000   0.000000   0.031520
   26  H  3  S    0.000236   0.096544  -0.151246   0.087501   0.000000
   27  H  3  S    0.000204   0.080922  -0.212241   0.145263   0.000000
   28  H  3  S    0.000029  -0.002277  -0.054518   0.028396   0.000000
   29  H  3  X    0.000188   0.023431  -0.018690   0.028809   0.000000
   30  H  3  Y   -0.000098  -0.014097   0.025659   0.010242   0.000000
   31  H  3  Z    0.000000   0.000000   0.000000   0.000000   0.031522

                      6          7          8          9         10
                    0.1513     0.2185     0.5771     0.6206     0.9966
                     A          A          A          A          A   
    1  O  1  S   -0.033527   0.000002   0.000011   0.033677  -0.014830
    2  O  1  S   -0.063751   0.000003   0.000019   0.057810  -0.019987
    3  O  1  X    0.000016   0.120275  -0.120337   0.000029  -0.000013
    4  O  1  Y    0.072556  -0.000009  -0.000026  -0.095911  -0.234915
    5  O  1  Z    0.000000   0.000000   0.000000   0.000000   0.000000
    6  O  1  S    0.121624  -0.000004  -0.000046  -0.133375   0.060282
    7  O  1  X    0.000020   0.127512  -0.185646   0.000051  -0.000051
    8  O  1  Y    0.108382  -0.000010  -0.000047  -0.186265  -0.732424
    9  O  1  Z    0.000000   0.000000   0.000000   0.000000   0.000000
   10  O  1  S    0.885082  -0.000060  -0.000328  -1.480838   0.854107
   11  O  1  X    0.000052   0.495607  -1.170509   0.000406   0.000104
   12  O  1  Y    0.201947  -0.000030  -0.000204  -1.087907   1.549054
   13  O  1  Z    0.000000   0.000000   0.000000   0.000000   0.000000
   14  O  1 XX   -0.024138   0.000002   0.000007   0.008759   0.040699
   15  O  1 YY   -0.019162   0.000002  -0.000006  -0.014992   0.017603
   16  O  1 ZZ   -0.027399   0.000003  -0.000003  -0.004901   0.008418
   17  O  1 XY    0.000000   0.005527   0.013041  -0.000003  -0.000003
   18  O  1 XZ    0.000000   0.000000   0.000000   0.000000   0.000000
   19  O  1 YZ    0.000000   0.000000   0.000000   0.000000   0.000000
   20  H  2  S   -0.034463  -0.023653   0.079855   0.062535  -0.032782
   21  H  2  S    0.072540   0.129889   1.486693   1.849969  -0.558883
   22  H  2  S   -0.851221  -1.579813  -0.722351  -0.601450  -0.103141
   23  H  2  X   -0.010971  -0.008848  -0.026191  -0.037658   0.153099
   24  H  2  Y   -0.000583  -0.008193   0.002741  -0.045120   0.098789
   25  H  2  Z    0.000000   0.000000   0.000000   0.000000   0.000000
   26  H  3  S   -0.034455   0.023650  -0.079807   0.062581  -0.032791
   27  H  3  S    0.072542  -0.129916  -1.485614   1.851109  -0.558873
   28  H  3  S   -0.851112   1.579915   0.721904  -0.601847  -0.103186
   29  H  3  X    0.010971  -0.008848  -0.026181   0.037684  -0.153093
   30  H  3  Y   -0.000583   0.008196  -0.002755  -0.045135   0.098801
   31  H  3  Z    0.000000   0.000000   0.000000   0.000000   0.000000

                     11         12         13         14         15
                    1.0030     1.1113     1.2419     1.4925     1.5159
                     A          A          A          A          A   
    1  O  1  S    0.000000   0.000001   0.093852   0.022420   0.000000
    2  O  1  S    0.000000   0.000000   0.125838   0.030848   0.000000
    3  O  1  X    0.000000  -0.241052   0.000003   0.000005   0.000000
    4  O  1  Y    0.000000   0.000016  -0.028137   0.017620   0.000000
    5  O  1  Z   -0.239411   0.000000   0.000000   0.000000   0.000004
    6  O  1  S    0.000000  -0.000027  -1.289794  -0.393411   0.000000
    7  O  1  X    0.000000  -0.705029  -0.000010   0.000006   0.000000
    8  O  1  Y    0.000000   0.000041   0.091884   0.081832   0.000000
    9  O  1  Z   -0.835970   0.000000   0.000000   0.000000   0.000033
   10  O  1  S    0.000000   0.000073   3.367649   1.759168   0.000000
   11  O  1  X    0.000000   1.802370   0.000003   0.000027   0.000000
   12  O  1  Y    0.000000  -0.000066   0.694142   1.177993   0.000000
   13  O  1  Z    1.156330   0.000000   0.000000   0.000000  -0.000032
   14  O  1 XX    0.000000   0.000000  -0.182748   0.057801   0.000000
   15  O  1 YY    0.000000  -0.000009  -0.169355  -0.164176   0.000000
   16  O  1 ZZ    0.000000  -0.000004  -0.207932  -0.030689   0.000000
   17  O  1 XY    0.000000   0.031822  -0.000005  -0.000025   0.000000
   18  O  1 XZ    0.000000   0.000000   0.000000   0.000000   0.121979
   19  O  1 YZ   -0.008406   0.000000   0.000000   0.000000  -0.000002
   20  H  2  S    0.000000  -0.019597  -0.003258   0.076710   0.000000
   21  H  2  S    0.000000  -0.347123  -0.864919  -1.081215   0.000000
   22  H  2  S    0.000000  -0.801074  -0.383648   0.052353   0.000000
   23  H  2  X    0.000000   0.174377   0.155402   0.556834   0.000000
   24  H  2  Y    0.000000   0.145739   0.270026  -0.475443   0.000000
   25  H  2  Z   -0.027678   0.000000   0.000000   0.000000   0.689731
   26  H  3  S    0.000000   0.019614  -0.003267   0.076704   0.000000
   27  H  3  S    0.000000   0.346987  -0.864984  -1.081329   0.000000
   28  H  3  S    0.000000   0.801104  -0.383743   0.052323   0.000000
   29  H  3  X    0.000000   0.174325  -0.155386  -0.556922   0.000000
   30  H  3  Y    0.000000  -0.145763   0.270066  -0.475327   0.000000
   31  H  3  Z   -0.027702   0.000000   0.000000   0.000000  -0.689684

                     16         17         18         19         20
                    1.7267     1.9304     2.2772     2.3954     2.5481
                     A          A          A          A          A   
    1  O  1  S    0.000000   0.000001   0.000009  -0.024557  -0.042667
    2  O  1  S    0.000000   0.000002   0.000013  -0.056526  -0.042274
    3  O  1  X    0.000000  -0.015128  -0.176531  -0.000023  -0.000017
    4  O  1  Y    0.000000   0.000003  -0.000018   0.158238   0.048268
    5  O  1  Z   -0.052898   0.000000   0.000000   0.000000   0.000000
    6  O  1  S    0.000000  -0.000020  -0.000073   0.166569   0.635005
    7  O  1  X    0.000000  -0.027335  -0.468037   0.000008  -0.000091
    8  O  1  Y    0.000000   0.000005  -0.000083   0.097367   0.777608
    9  O  1  Z   -0.075047   0.000000   0.000000   0.000000   0.000000
   10  O  1  S    0.000000  -0.000079  -0.000275  -0.572754   1.895048
   11  O  1  X    0.000000   0.948863   0.027063   0.000109   0.000039
   12  O  1  Y    0.000000  -0.000094  -0.000096  -0.392500   0.755447
   13  O  1  Z   -0.551521   0.000000   0.000000   0.000000   0.000000
   14  O  1 XX    0.000000   0.000006   0.000041  -0.261923   0.180225
   15  O  1 YY    0.000000  -0.000016  -0.000027  -0.117828   0.137887
   16  O  1 ZZ    0.000000  -0.000005  -0.000057   0.246040   0.249629
   17  O  1 XY    0.000000   0.079096   0.252528   0.000095   0.000020
   18  O  1 XZ    0.000009   0.000000   0.000000   0.000000   0.000000
   19  O  1 YZ    0.145483   0.000000   0.000000   0.000000   0.000000
   20  H  2  S    0.000000   0.190852   0.713086  -0.967268   0.355896
   21  H  2  S    0.000000  -0.786875  -0.742155   1.492739  -1.894295
   22  H  2  S    0.000000   0.160487   0.542139  -0.444959   0.188199
   23  H  2  X    0.000000  -0.480798  -0.249669   0.093489   1.024372
   24  H  2  Y    0.000000   0.651435  -0.467354  -0.021931   0.713372
   25  H  2  Z    0.771942   0.000000   0.000000   0.000000   0.000000
   26  H  3  S    0.000000  -0.190835  -0.712887  -0.967606   0.355615
   27  H  3  S    0.000000   0.786955   0.742282   1.493429  -1.894266
   28  H  3  S    0.000000  -0.160472  -0.542033  -0.445184   0.188053
   29  H  3  X    0.000000  -0.480853  -0.249242  -0.093391  -1.024469
   30  H  3  Y    0.000000  -0.651418   0.467193  -0.021937   0.713704
   31  H  3  Z    0.771996   0.000000   0.000000   0.000000   0.000000

                     21         22         23         24         25
                    2.7685     3.5052     3.5719     3.7379     4.0329
                     A          A          A          A          A   
    1  O  1  S   -0.000002   0.000000   0.000000  -0.002302  -0.029222
    2  O  1  S   -0.000003   0.000000   0.000000  -0.003882  -0.071801
    3  O  1  X   -0.015063   0.000000   0.000000   0.000013   0.000054
    4  O  1  Y    0.000008   0.000000   0.000000   0.058858   0.314511
    5  O  1  Z    0.000000   0.023790  -0.000016   0.000000   0.000000
    6  O  1  S    0.000107   0.000000   0.000000  -0.035012   0.271381
    7  O  1  X   -0.969782   0.000000   0.000000  -0.000003  -0.000019
    8  O  1  Y    0.000131   0.000000   0.000000   0.050293   0.132239
    9  O  1  Z    0.000000  -0.009413  -0.000002   0.000000   0.000000
   10  O  1  S    0.000080   0.000000   0.000000   0.857945   2.022224
   11  O  1  X   -0.731967   0.000000   0.000000   0.000076   0.000146
   12  O  1  Y    0.000060   0.000000   0.000000   0.675538   0.897252
   13  O  1  Z    0.000000   0.275198  -0.000121   0.000000   0.000000
   14  O  1 XX   -0.000019   0.000000   0.000000  -0.608703   0.902288
   15  O  1 YY    0.000040   0.000000   0.000000   1.086120   0.005278
   16  O  1 ZZ    0.000021   0.000000   0.000000  -0.469359  -1.038870
   17  O  1 XY   -0.238254   0.000000   0.000000   0.000156   0.000055
   18  O  1 XZ    0.000000   0.000470   1.060024   0.000000   0.000000
   19  O  1 YZ    0.000000   1.037327  -0.000478   0.000000   0.000000
   20  H  2  S   -0.729351   0.000000   0.000000  -0.027378  -0.344955
   21  H  2  S    2.130738   0.000000   0.000000  -0.570527  -1.042880
   22  H  2  S   -0.502251   0.000000   0.000000   0.028389  -0.060230
   23  H  2  X   -0.949970   0.000000   0.000000   0.423486   0.558662
   24  H  2  Y   -0.687527   0.000000   0.000000  -0.233127   0.480817
   25  H  2  Z    0.000000  -0.366927  -0.350951   0.000000   0.000000
   26  H  3  S    0.729112   0.000000   0.000000  -0.027372  -0.344951
   27  H  3  S   -2.130683   0.000000   0.000000  -0.570546  -1.042808
   28  H  3  S    0.502178   0.000000   0.000000   0.028403  -0.060208
   29  H  3  X   -0.949977   0.000000   0.000000  -0.423546  -0.558485
   30  H  3  Y    0.687750   0.000000   0.000000  -0.233113   0.480847
   31  H  3  Z    0.000000  -0.366687   0.351269   0.000000   0.000000

                     26         27         28         29         30
                    4.2822     5.3302     5.6757     6.2574     6.8536
                     A          A          A          A          A   
    1  O  1  S    0.000006   0.000000  -0.068081   0.000024  -0.167054
    2  O  1  S    0.000015   0.000000  -0.238526   0.000088  -0.653959
    3  O  1  X    0.467601   0.000000  -0.000152  -1.254557  -0.000112
    4  O  1  Y   -0.000098   0.000000  -1.182389   0.000092   0.452449
    5  O  1  Z    0.000000  -1.270751   0.000000   0.000000   0.000000
    6  O  1  S   -0.000094   0.000000   0.968227  -0.000384   2.398485
    7  O  1  X   -0.028167   0.000000   0.000178   2.056206   0.000241
    8  O  1  Y   -0.000016   0.000000   1.555849  -0.000176  -0.894885
    9  O  1  Z    0.000000   1.375659   0.000000   0.000000   0.000000
   10  O  1  S   -0.000262   0.000000   1.140841  -0.000140   0.202161
   11  O  1  X    0.921843   0.000000  -0.000029  -0.130972   0.000000
   12  O  1  Y   -0.000183   0.000000  -0.094357   0.000003  -0.042587
   13  O  1  Z    0.000000  -0.476020   0.000000   0.000000   0.000000
   14  O  1 XX    0.000064   0.000000  -0.212536   0.000254  -1.766737
   15  O  1 YY   -0.000159   0.000000  -0.339253   0.000094  -1.575072
   16  O  1 ZZ    0.000122   0.000000  -0.728794   0.000186  -1.238227
   17  O  1 XY    1.148953   0.000000  -0.000008   0.678390   0.000135
   18  O  1 XZ    0.000000  -0.000007   0.000000   0.000000   0.000000
   19  O  1 YZ    0.000000   0.033290   0.000000   0.000000   0.000000
   20  H  2  S   -0.441218   0.000000  -0.237027  -0.397811   0.260474
   21  H  2  S   -0.483808   0.000000  -0.433218  -0.511961   0.431057
   22  H  2  S   -0.244583   0.000000  -0.044294   0.145610  -0.128796
   23  H  2  X    0.467228   0.000000   0.380100   0.546869  -0.459541
   24  H  2  Y    0.339977   0.000000   0.194096   0.476491  -0.313277
   25  H  2  Z    0.000000  -0.065909   0.000000   0.000000   0.000000
   26  H  3  S    0.441391   0.000000  -0.237062   0.397902   0.260664
   27  H  3  S    0.484037   0.000000  -0.433213   0.511976   0.431261
   28  H  3  S    0.244617   0.000000  -0.044326  -0.145571  -0.128844
   29  H  3  X    0.467317   0.000000  -0.380060   0.546787   0.459694
   30  H  3  Y   -0.340144   0.000000   0.194121  -0.476576  -0.313506
   31  H  3  Z    0.000000  -0.065927   0.000000   0.000000   0.000000

                     31
                   56.9560
                     A   
    1  O  1  S   -2.321574
    2  O  1  S    2.705443
    3  O  1  X    0.000001
    4  O  1  Y   -0.025091
    5  O  1  Z    0.000000
    6  O  1  S   -1.098747
    7  O  1  X   -0.000009
    8  O  1  Y    0.093510
    9  O  1  Z    0.000000
   10  O  1  S   -0.186717
   11  O  1  X   -0.000002
   12  O  1  Y    0.001326
   13  O  1  Z    0.000000
   14  O  1 XX    0.584774
   15  O  1 YY    0.560832
   16  O  1 ZZ    0.525484
   17  O  1 XY   -0.000008
   18  O  1 XZ    0.000000
   19  O  1 YZ    0.000000
   20  H  2  S   -0.031109
   21  H  2  S   -0.059193
   22  H  2  S    0.042055
   23  H  2  X    0.070833
   24  H  2  Y    0.052342
   25  H  2  Z    0.000000
   26  H  3  S   -0.031124
   27  H  3  S   -0.059211
   28  H  3  S    0.042063
   29  H  3  X   -0.070840
   30  H  3  Y    0.052363
   31  H  3  Z    0.000000
 ...... END OF RHF CALCULATION ......
 STEP CPU TIME =     0.03 TOTAL CPU TIME =        0.0 (    0.0 MIN)
 TOTAL WALL CLOCK TIME=        0.0 SECONDS, CPU UTILIZATION IS 100.00%

          -----------------
          ENERGY COMPONENTS
          -----------------

         WAVEFUNCTION NORMALIZATION =       1.0000000000

                ONE ELECTRON ENERGY =    -123.4310204519
                TWO ELECTRON ENERGY =      38.0334692699
           NUCLEAR REPULSION ENERGY =       9.3504591612
                                      ------------------
                       TOTAL ENERGY =     -76.0470920207

 ELECTRON-ELECTRON POTENTIAL ENERGY =      38.0334692699
  NUCLEUS-ELECTRON POTENTIAL ENERGY =    -199.5422468691
   NUCLEUS-NUCLEUS POTENTIAL ENERGY =       9.3504591612
                                      ------------------
             TOTAL POTENTIAL ENERGY =    -152.1583184379
               TOTAL KINETIC ENERGY =      76.1112264172
                 VIRIAL RATIO (V/T) =       1.9991573596

  ...... PI ENERGY ANALYSIS ......

 ENERGY ANALYSIS:
            FOCK ENERGY=    -47.3640872490
          BARE H ENERGY=   -123.4310204519
     ELECTRONIC ENERGY =    -85.3975538505
         KINETIC ENERGY=     76.1112264172
          N-N REPULSION=      9.3504591612
           TOTAL ENERGY=    -76.0470946892
        SIGMA PART(1+2)=    -77.7946366602
               (K,V1,2)=     71.5411113512   -180.7678459061     31.4320978947
           PI PART(1+2)=     -7.6029171903
               (K,V1,2)=      4.5701150660    -18.7744009630      6.6013687067
  SIGMA SKELETON, ERROR=    -68.4441774989      0.0000000000
             MIXED PART= 0.00000E+00 0.00000E+00 0.00000E+00 0.00000E+00
 ...... END OF PI ENERGY ANALYSIS ......

          ---------------------------------------
          MULLIKEN AND LOWDIN POPULATION ANALYSES
          ---------------------------------------

     MULLIKEN ATOMIC POPULATION IN EACH MOLECULAR ORBITAL

                      1          2          3          4          5

                  2.000000   2.000000   2.000000   2.000000   2.000000

    1             1.999820   1.603563   1.214724   1.726623   1.954881
    2             0.000090   0.198201   0.392639   0.136707   0.022558
    3             0.000090   0.198236   0.392638   0.136670   0.022561

               ----- POPULATIONS IN EACH AO -----
                             MULLIKEN      LOWDIN
              1  O  1  S      1.08350     1.03175
              2  O  1  S      0.91186     0.93147
              3  O  1  X      0.25071     0.24835
              4  O  1  Y      0.30975     0.30959
              5  O  1  Z      0.38266     0.38828
              6  O  1  S      0.97972     0.53658
              7  O  1  X      0.59785     0.54587
              8  O  1  Y      0.68379     0.67244
              9  O  1  Z      0.80655     0.80079
             10  O  1  S      0.79202     0.43712
             11  O  1  X      0.35709     0.43153
             12  O  1  Y      0.56422     0.59624
             13  O  1  Z      0.76469     0.69011
             14  O  1 XX      0.01020     0.19017
             15  O  1 YY     -0.00031     0.18348
             16  O  1 ZZ     -0.00474     0.18503
             17  O  1 XY      0.00907     0.01166
             18  O  1 XZ      0.00000     0.00000
             19  O  1 YZ      0.00098     0.00025
             20  H  2  S      0.27294     0.27905
             21  H  2  S      0.37908     0.34856
             22  H  2  S      0.02660     0.10781
             23  H  2  X      0.02722     0.05400
             24  H  2  Y      0.02179     0.05493
             25  H  2  Z      0.02256     0.06028
             26  H  3  S      0.27296     0.27907
             27  H  3  S      0.37907     0.34855
             28  H  3  S      0.02659     0.10780
             29  H  3  X      0.02722     0.05399
             30  H  3  Y      0.02180     0.05494
             31  H  3  Z      0.02256     0.06029

          ----- MULLIKEN ATOMIC OVERLAP POPULATIONS -----
          (OFF-DIAGONAL ELEMENTS NEED TO BE MULTIPLIED BY 2)

             1           2           3

    1    7.8443189
    2    0.3276417   0.4533912
    3    0.3276496  -0.0308382   0.4533839

          TOTAL MULLIKEN AND LOWDIN ATOMIC POPULATIONS
       ATOM         MULL.POP.    CHARGE          LOW.POP.     CHARGE
    1 O             8.499610   -0.499610         8.190714   -0.190714
    2 H             0.750195    0.249805         0.904630    0.095370
    3 H             0.750195    0.249805         0.904656    0.095344

          -------------------------------
          BOND ORDER AND VALENCE ANALYSIS     BOND ORDER THRESHOLD=0.050
          -------------------------------

                   BOND                       BOND                       BOND
  ATOM PAIR DIST  ORDER      ATOM PAIR DIST  ORDER      ATOM PAIR DIST  ORDER
    1   2  0.941  0.962        1   3  0.941  0.962

                       TOTAL       BONDED        FREE
      ATOM            VALENCE     VALENCE     VALENCE
    1 O                 1.925       1.925       0.000
    2 H                 0.970       0.970       0.000
    3 H                 0.970       0.970       0.000

          ---------------------
          ELECTROSTATIC MOMENTS
          ---------------------

 POINT   1           X           Y           Z (BOHR)    CHARGE
                 0.000000    0.000000    0.000000        0.00 (A.U.)
         DX          DY          DZ         /D/  (DEBYE)
     0.000195    2.139029    0.000000    2.139029
 ...... END OF PROPERTY EVALUATION ......
 STEP CPU TIME =     0.00 TOTAL CPU TIME =        0.0 (    0.0 MIN)
 TOTAL WALL CLOCK TIME=        0.0 SECONDS, CPU UTILIZATION IS 100.00%

     ---------------------------------------------
     1ST AND 2ND INTEGRAL DERIVATIVE CONTRIBUTIONS
     ---------------------------------------------
 ...... END OF 1-ELECTRON GRAD+HESS+FOCKDER ......
 STEP CPU TIME =     0.01 TOTAL CPU TIME =        0.1 (    0.0 MIN)
 TOTAL WALL CLOCK TIME=        0.0 SECONDS, CPU UTILIZATION IS 100.00%

     ----------------------------------------------
     TWO ELECTRON INTEGRAL DERIVATIVE CONTRIBUTIONS
     ----------------------------------------------

      16027 WORDS REQUIRED,   1000000 WORDS AVAILABLE
 THE COARSE/FINE SCHWARZ SCREENINGS SKIPPED          0/         0 BLOCKS.
 THE NUMBER OF DERIVATIVE INTEGRAL BLOCKS COMPUTED WAS      3956
 STEP CPU TIME =     0.28 TOTAL CPU TIME =        0.3 (    0.0 MIN)
 TOTAL WALL CLOCK TIME=        1.0 SECONDS, CPU UTILIZATION IS  34.00%
 ...... END OF 2-ELECTRON GRAD+HESS+FOCKDER ......
 STEP CPU TIME =     0.00 TOTAL CPU TIME =        0.3 (    0.0 MIN)
 TOTAL WALL CLOCK TIME=        1.0 SECONDS, CPU UTILIZATION IS  34.00%

     -------------------------------------------
     COUPLED-PERTURBED CLOSED SHELL HARTREE-FOCK
     -------------------------------------------
 THE CPHF HAS     130 INDEPENDENT ORBITAL ROTATIONS.
 SOLVING FOR    9 NUCLEAR RESPONSES AND 0 ELECTRIC FIELD RESPONSES
           -FA- WILL USE      3505 WORDS,
           -TA- WILL USE     12425 WORDS,
          -FCK- WILL USE     43880 WORDS,
 -WXY- AND -YA- WILL USE     47982 WORDS,
               THERE ARE   1000000 WORDS OF REPLICATED MEMORY AVAILABLE.
        TIME FOR -FA-   =        0.000
        TIME FOR -TA-   =        0.000
        TIME FOR -FCK-  =        0.010
 PRECONDITIONED CONJUGATE GRADIENT SOLVER     CONV. TOLERANCE=5.00E-05
 ITER    RESPONSE ERROR        IMPROVED
   1       2.86915E-01             9
   2       1.05236E-01             9
   3       2.15897E-02             9
   4       4.78282E-03             9
   5       8.98016E-04             9
   6       1.32511E-04             9
   7       2.56713E-05             5
 THE CPHF HAS CONVERGED AFTER  7 ITERATIONS.
 IT REQUIRED    59 FOCK-LIKE BUILDS TO FIND THE   9 SYMMETRY UNIQUE RESPONSES.
        TIME FOR -YA-   =        0.040
 ...... DONE WITH CPHF CONTRIBUTIONS ......
 STEP CPU TIME =     0.05 TOTAL CPU TIME =        0.4 (    0.0 MIN)
 TOTAL WALL CLOCK TIME=        1.0 SECONDS, CPU UTILIZATION IS  39.00%

          ---------------
          ENERGY GRADIENT
          ---------------

      ATOM                 E'X               E'Y               E'Z 
    1 O               -0.000045373       0.000026003       0.000000000
    2 H                0.000033138       0.000004267       0.000000000
    3 H                0.000012235      -0.000030270       0.000000000

          -------------------------------
          CARTESIAN FORCE CONSTANT MATRIX
          -------------------------------

                                   1                          2
                               O                          H         
                          X        Y        Z        X        Y        Z
  1   O            X 0.802805-0.000134 0.000000-0.401383-0.305454 0.000000
                   Y-0.000134 0.536038 0.000000-0.240465-0.267949 0.000000
                   Z 0.000000 0.000000-0.000024 0.000000 0.000000-0.000005
  2   H            X-0.401383-0.240465 0.000000 0.435101 0.272957 0.000000
                   Y-0.305454-0.267949 0.000000 0.272957 0.250210 0.000000
                   Z 0.000000 0.000000-0.000005 0.000000 0.000000 0.000014
  3   H            X-0.401421 0.240599 0.000000-0.033718 0.032497 0.000000
                   Y 0.305588-0.268090 0.000000-0.032492 0.017739 0.000000
                   Z 0.000000 0.000000 0.000027 0.000000 0.000000-0.000008

                                   3
                               H         
                          X        Y        Z
  3   H            X 0.435139-0.273096 0.000000
                   Y-0.273096 0.250351 0.000000
                   Z 0.000000 0.000000-0.000018

          ------------------------          ----------------
          DIPOLE DERIVATIVE TENSOR          (DEBYE/ANGSTROM)
          ------------------------          ----------------

        ATOM                 MU-X           MU-Y           MU-Z
     O          D/DX    -2.533501191    0.000037847    0.000000000
                D/DY     0.000158416   -1.985650636    0.000000000
                D/DZ     0.000000000    0.000000000   -3.753003883
     H          D/DX     1.266684327   -0.196261602    0.000000000
                D/DY    -0.464191233    0.992904009    0.000000000
                D/DZ     0.000000000    0.000000000    1.876497571
     H          D/DX     1.266775509    0.196228061    0.000000000
                D/DY     0.464032784    0.992810978    0.000000000
                D/DZ     0.000000000    0.000000000    1.876546244

          --------------------------------------------------------
          NORMAL COORDINATE ANALYSIS IN THE HARMONIC APPROXIMATION
          --------------------------------------------------------

          ATOMIC WEIGHTS (AMU)

    1     O                15.99491
    2     H                 1.00782
    3     H                 1.00782

 MODES 1 TO 6 ARE TAKEN AS ROTATIONS AND TRANSLATIONS.

     FREQUENCIES IN CM**-1, IR INTENSITIES IN DEBYE**2/AMU-ANGSTROM**2,
     REDUCED MASSES IN AMU.

                          1           2           3           4           5
       FREQUENCY:        23.98        1.54        0.00        0.15        0.23  
    REDUCED MASS:      1.09919     1.09177     6.00353     4.81901     5.87512
    IR INTENSITY:      5.69937     2.64728     0.00000     0.02570     0.00026

  1   O            X  0.00000000  0.07162502 -0.00076060  0.22971545 -0.00000001
                   Y  0.00000000  0.00007916  0.23563196  0.00075649  0.00000000
                   Z -0.07447095  0.00000000  0.00000000  0.00000001  0.23511311
  2   H            X  0.00000000 -0.36181659 -0.00076036  0.27242489 -0.00000001
                   Y  0.00000000  0.56962646  0.23563167 -0.05536409  0.00000000
                   Z  0.19192981  0.00000000  0.00000000  0.00000001  0.22729882
  3   H            X  0.00000000 -0.36199967 -0.00076088  0.27244297 -0.00000001
                   Y  0.00000000 -0.56955006  0.23563162  0.05688507  0.00000000
                   Z  0.93133287  0.00000000  0.00000000  0.00000001  0.25152831

 TRANS. SAYVETZ    X  0.00000000  0.41615558 -0.01369887  4.22340939 -0.00000012
                   Y  0.00000000  0.00134311  4.24386290  0.01363286  0.00000001
                   Z -0.05910396  0.00000000 -0.00000001  0.00000012  4.24318697
               TOTAL  0.05910396  0.41615775  4.24388501  4.22343139  4.24318697

   ROT. SAYVETZ    X  1.22645259  0.00000000  0.00000000  0.00000000  0.00829313
                   Y  1.05437958  0.00000000  0.00000000  0.00000000  0.03455440
                   Z  0.00000000  2.46050004  0.00000012 -0.24244650  0.00000001
               TOTAL  1.61737511  2.46050004  0.00000012  0.24244650  0.03553565

                          6           7           8           9
       FREQUENCY:        20.58     1749.68     4140.55     4236.50  
    REDUCED MASS:      1.03411     1.08221     1.04560     1.08280
    IR INTENSITY:      2.16895     1.86017     0.41899     1.34005

  1   O            X  0.00000000 -0.00000016 -0.00024468 -0.06796999
                   Y  0.00000000 -0.06772342 -0.04909578  0.00018021
                   Z -0.04118000  0.00000000  0.00000000  0.00000000
  2   H            X  0.00000000 -0.41341384  0.57220644  0.53738012
                   Y  0.00000000  0.53751704  0.39100692  0.40910024
                   Z  0.95064922  0.00000000  0.00000000  0.00000000
  3   H            X  0.00000000  0.41341645 -0.56832298  0.54135208
                   Y  0.00000000  0.53730490  0.38817837 -0.41196032
                   Z -0.24817002  0.00000000  0.00000000  0.00000000

 TRANS. SAYVETZ    X  0.00000000  0.00000010  0.00000020 -0.00000064
                   Y  0.00000000  0.00000236 -0.00000019  0.00000000
                   Z  0.04930569  0.00000000  0.00000000  0.00000000
               TOTAL  0.04930569  0.00000236  0.00000028  0.00000064

   ROT. SAYVETZ    X  0.75648299  0.00000000  0.00000000  0.00000000
                   Y -1.70979804  0.00000000  0.00000000  0.00000000
                   Z  0.00000000  0.00036026  0.00000048  0.00003547
               TOTAL  1.86967266  0.00036026  0.00000048  0.00003547

 REFERENCE ON SAYVETZ CONDITIONS - A. SAYVETZ, J.CHEM.PHYS., 7, 383-389(1939).

 NOTE - THE MODES J,K ARE ORTHONORMALIZED ACCORDING TO
 SUM ON I   M(I) * (X(I,J)*X(I,K) + Y(I,J)*Y(I,K) + Z(I,J)*Z(I,K)) = DELTA(J,K)

     -------------------------------
     THERMOCHEMISTRY AT T=  298.15 K
     -------------------------------

 USING IDEAL GAS, RIGID ROTOR, HARMONIC NORMAL MODE APPROXIMATIONS.
 P=  1.01325E+05 PASCAL.
 ALL FREQUENCIES ARE SCALED BY   1.00000
 THE MOMENTS OF INERTIA ARE (IN AMU*BOHR**2)
      2.07652     4.03632     6.11284
 THE ROTATIONAL SYMMETRY NUMBER IS  1.0
 THE ROTATIONAL CONSTANTS ARE (IN GHZ)
    868.32160   446.71592   294.96731
 THE HARMONIC ZERO POINT ENERGY IS (SCALED BY   1.000)
        0.023070 HARTREE/MOLECULE     5063.367925 CM**-1/MOLECULE 
       14.476910 KCAL/MOL               60.571391 KJ/MOL

               Q               LN Q
 ELEC.     1.00000E+00       0.000000
 TRANS.    3.00431E+06      14.915558
 ROT.      8.10259E+01       4.394769
 VIB.      1.00022E+00       0.000215
 TOT.      2.43479E+08      19.310542

              E         H         G         CV        CP        S
           KJ/MOL    KJ/MOL    KJ/MOL   J/MOL-K   J/MOL-K   J/MOL-K
 ELEC.      0.000     0.000     0.000     0.000     0.000     0.000
 TRANS.     3.718     6.197   -36.975    12.472    20.786   144.800
 ROT.       3.718     3.718   -10.894    12.472    12.472    49.012
 VIB.      60.576    60.576    60.571     0.128     0.128     0.017
 TOTAL     68.013    70.492    12.702    25.071    33.385   193.828

              E         H         G         CV        CP        S
         KCAL/MOL  KCAL/MOL  KCAL/MOL CAL/MOL-K CAL/MOL-K CAL/MOL-K
 ELEC.      0.000     0.000     0.000     0.000     0.000     0.000
 TRANS.     0.889     1.481    -8.837     2.981     4.968    34.608
 ROT.       0.889     0.889    -2.604     2.981     2.981    11.714
 VIB.      14.478    14.478    14.477     0.031     0.031     0.004
 TOTAL     16.255    16.848     3.036     5.992     7.979    46.326
 ......END OF NORMAL COORDINATE ANALYSIS......
 STEP CPU TIME =     0.00 TOTAL CPU TIME =        0.4 (    0.0 MIN)
 TOTAL WALL CLOCK TIME=        1.0 SECONDS, CPU UTILIZATION IS  39.00%
                440000  WORDS OF DYNAMIC MEMORY USED
 EXECUTION OF GAMESS TERMINATED NORMALLY Mon Sep 28 13:14:51 2009
 DDI: 1128 bytes (0.0 MB / 0 MWords) used by master data server.

 ----------------------------------------
 CPU timing information for all processes
 ========================================
 0: 0.371943 + 0.022996 = 0.394939
 ----------------------------------------
 ddikick.x: exited gracefully.
