 argument  1 = wat_freq.inp
                                         
                                         
 
 
              Northwest Computational Chemistry Package (NWChem) 6.8
              ------------------------------------------------------
 
 
                    Environmental Molecular Sciences Laboratory
                       Pacific Northwest National Laboratory
                                Richland, WA 99352
 
                              Copyright (c) 1994-2017
                       Pacific Northwest National Laboratory
                            Battelle Memorial Institute
 
             NWChem is an open-source computational chemistry package
                        distributed under the terms of the
                      Educational Community License (ECL) 2.0
             A copy of the license is included with this distribution
                              in the LICENSE.TXT file
 
                                  ACKNOWLEDGMENT
                                  --------------

            This software and its documentation were developed at the
            EMSL at Pacific Northwest National Laboratory, a multiprogram
            national laboratory, operated for the U.S. Department of Energy
            by Battelle under Contract Number DE-AC05-76RL01830. Support
            for this work was provided by the Department of Energy Office
            of Biological and Environmental Research, Office of Basic
            Energy Sciences, and the Office of Advanced Scientific Computing.


           Job information
           ---------------

    hostname        = node035
    program         = nwchem
    date            = Tue Oct 26 21:39:54 2021

    compiled        = Tue_Nov_26_23:55:26_2019
    source          = /scratch/ckoe/compile/nwchem-6.8.1
    nwchem branch   = 6.8.1
    nwchem revision = v6.8-133-ge032219
    ga revision     = 5.6.5
    use scalapack   = F
    input           = wat_freq.inp
    prefix          = sq.
    data base       = ./sq.db
    status          = startup
    nproc           =       19
    time left       =     -1s



           Memory information
           ------------------

    heap     =   13107194 doubles =    100.0 Mbytes
    stack    =   13107199 doubles =    100.0 Mbytes
    global   =   26214400 doubles =    200.0 Mbytes (distinct from heap & stack)
    total    =   52428793 doubles =    400.0 Mbytes
    verify   = yes
    hardfail = no 


           Directory information
           ---------------------
 
  0 permanent = .
  0 scratch   = .
 
 
 
 
                                NWChem Input Module
                                -------------------
 
 
                              PBE0/6-31G** frequency
                              ----------------------

 Scaling coordinates for geometry "geometry" by  1.889725989
 (inverse scale =  0.529177249)


          ------
          auto-z
          ------
 
 
                             Geometry "geometry" -> ""
                             -------------------------
 
 Output coordinates in angstroms (scale by  1.889725989 to convert to a.u.)
 
  No.       Tag          Charge          X              Y              Z
 ---- ---------------- ---------- -------------- -------------- --------------
    1 O                    8.0000     0.00000000     0.00000246     0.20280148
    2 H                    1.0000     0.00000000    -0.75690804     0.79488727
    3 H                    1.0000     0.00000000     0.75690476     0.79489833
 
      Atomic Mass 
      ----------- 
 
      O                 15.994910
      H                  1.007825
 

 Effective nuclear repulsion energy (a.u.)       9.1602074141

            Nuclear Dipole moment (a.u.) 
            ----------------------------
        X                 Y               Z
 ---------------- ---------------- ----------------
     0.0000000000     0.0000309915     6.0701729828
 


                                Z-matrix (autoz)
                                -------- 

 Units are Angstrom for bonds and degrees for angles
 
      Type          Name      I     J     K     L     M      Value
      ----------- --------  ----- ----- ----- ----- ----- ----------
    1 Stretch                  1     2                       0.96098
    2 Stretch                  1     3                       0.96098
    3 Bend                     2     1     3               103.93129
 
 
            XYZ format geometry
            -------------------
     3
 geometry
 O                     0.00000000     0.00000246     0.20280148
 H                     0.00000000    -0.75690804     0.79488727
 H                     0.00000000     0.75690476     0.79489833
 
 ==============================================================================
                                internuclear distances
 ------------------------------------------------------------------------------
       center one      |      center two      | atomic units |  angstroms
 ------------------------------------------------------------------------------
    2 H                |   1 O                |     1.81599  |     0.96098
    3 H                |   1 O                |     1.81599  |     0.96098
 ------------------------------------------------------------------------------
                         number of included internuclear distances:          2
 ==============================================================================



 ==============================================================================
                                 internuclear angles
 ------------------------------------------------------------------------------
        center 1       |       center 2       |       center 3       |  degrees
 ------------------------------------------------------------------------------
    2 H                |   1 O                |   3 H                |   103.93
 ------------------------------------------------------------------------------
                            number of included internuclear angles:          1
 ==============================================================================



  library name resolved from: environment
  library file name is: </cluster/nwchem/6.8/data/libraries/>
  


 Summary of "ao basis" -> "" (cartesian)
 ------------------------------------------------------------------------------
       Tag                 Description            Shells   Functions and Types
 ---------------- ------------------------------  ------  ---------------------
 *                          6-31G**                   on all atoms 


 
 
                           NWChem Geometry Optimization
                           ----------------------------
 
 
 
 
                              PBE0/6-31G** frequency
 
 
 maximum gradient threshold         (gmax) =   0.000450
 rms gradient threshold             (grms) =   0.000300
 maximum cartesian step threshold   (xmax) =   0.001800
 rms cartesian step threshold       (xrms) =   0.001200
 fixed trust radius                (trust) =   0.300000
 maximum step size to saddle      (sadstp) =   0.100000
 energy precision                  (eprec) =   5.0D-06
 maximum number of steps          (nptopt) =   20
 initial hessian option           (inhess) =    0
 line search option               (linopt) =    1
 hessian update option            (modupd) =    1
 saddle point option              (modsad) =    0
 initial eigen-mode to follow     (moddir) =    0
 initial variable to follow       (vardir) =    0
 follow first negative mode     (firstneg) =    T
 apply conjugacy                    (opcg) =    F
 source of zmatrix                         =   autoz   


          -------------------
          Energy Minimization
          -------------------

 
 Names of Z-matrix variables 
    1              2              3         
 
 Variables with the same non-blank name are constrained to be equal
 
 
 Using diagonal initial Hessian 
 Scaling for Hessian diagonals: bonds = 1.00  angles = 0.25  torsions = 0.10

          --------
          Step   0
          --------
 
 
                         Geometry "geometry" -> "geometry"
                         ---------------------------------
 
 Output coordinates in angstroms (scale by  1.889725989 to convert to a.u.)
 
  No.       Tag          Charge          X              Y              Z
 ---- ---------------- ---------- -------------- -------------- --------------
    1 O                    8.0000     0.00000000     0.00000246     0.20280148
    2 H                    1.0000     0.00000000    -0.75690804     0.79488727
    3 H                    1.0000     0.00000000     0.75690476     0.79489833
 
      Atomic Mass 
      ----------- 
 
      O                 15.994910
      H                  1.007825
 

 Effective nuclear repulsion energy (a.u.)       9.1602074141

            Nuclear Dipole moment (a.u.) 
            ----------------------------
        X                 Y               Z
 ---------------- ---------------- ----------------
     0.0000000000     0.0000309915     6.0701729828
 
 
                                 NWChem DFT Module
                                 -----------------
 
 
                              PBE0/6-31G** frequency
 
 
                      Basis "ao basis" -> "ao basis" (cartesian)
                      -----
  O (Oxygen)
  ----------
            Exponent  Coefficients 
       -------------- ---------------------------------------------------------
  1 S  5.48467170E+03  0.001831
  1 S  8.25234950E+02  0.013950
  1 S  1.88046960E+02  0.068445
  1 S  5.29645000E+01  0.232714
  1 S  1.68975700E+01  0.470193
  1 S  5.79963530E+00  0.358521
 
  2 S  1.55396160E+01 -0.110778
  2 S  3.59993360E+00 -0.148026
  2 S  1.01376180E+00  1.130767
 
  3 P  1.55396160E+01  0.070874
  3 P  3.59993360E+00  0.339753
  3 P  1.01376180E+00  0.727159
 
  4 S  2.70005800E-01  1.000000
 
  5 P  2.70005800E-01  1.000000
 
  6 D  8.00000000E-01  1.000000
 
  H (Hydrogen)
  ------------
            Exponent  Coefficients 
       -------------- ---------------------------------------------------------
  1 S  1.87311370E+01  0.033495
  1 S  2.82539370E+00  0.234727
  1 S  6.40121700E-01  0.813757
 
  2 S  1.61277800E-01  1.000000
 
  3 P  1.10000000E+00  1.000000
 


 Summary of "ao basis" -> "ao basis" (cartesian)
 ------------------------------------------------------------------------------
       Tag                 Description            Shells   Functions and Types
 ---------------- ------------------------------  ------  ---------------------
 O                          6-31G**                  6       15   3s2p1d
 H                          6-31G**                  3        5   2s1p




 Summary of "ao basis" -> "ao basis" (cartesian)
 ------------------------------------------------------------------------------
       Tag                 Description            Shells   Functions and Types
 ---------------- ------------------------------  ------  ---------------------
 O                          6-31G**                  6       15   3s2p1d
 H                          6-31G**                  3        5   2s1p


  Caching 1-el integrals 
 
            General Information
            -------------------
          SCF calculation type: DFT
          Wavefunction type:  closed shell.
          No. of atoms     :     3
          No. of electrons :    10
           Alpha electrons :     5
            Beta electrons :     5
          Charge           :     0
          Spin multiplicity:     1
          Use of symmetry is: off; symmetry adaption is: off
          Maximum number of iterations:  30
          AO basis - number of functions:    25
                     number of shells:    12
          Convergence on energy requested:  1.00D-06
          Convergence on density requested:  1.00D-05
          Convergence on gradient requested:  5.00D-04
 
              XC Information
              --------------
                         PBE0 Method XC Functional
                     Hartree-Fock (Exact) Exchange  0.250          
          PerdewBurkeErnzerhof Exchange Functional  0.750          
            Perdew 1991 LDA Correlation Functional  1.000 local    
           PerdewBurkeErnz. Correlation Functional  1.000 non-local
 
             Grid Information
             ----------------
          Grid used for XC integration:  medium    
          Radial quadrature: Mura-Knowles        
          Angular quadrature: Lebedev. 
          Tag              B.-S. Rad. Rad. Pts. Rad. Cut. Ang. Pts.
          ---              ---------- --------- --------- ---------
          O                   0.60       49           5.0       434
          H                   0.35       45           6.0       434
          Grid pruning is: on 
          Number of quadrature shells:   139
          Spatial weights used:  Erf1
 
          Convergence Information
          -----------------------
          Convergence aids based upon iterative change in 
          total energy or number of iterations. 
          Levelshifting, if invoked, occurs when the 
          HOMO/LUMO gap drops below (HL_TOL):  1.00D-02
          DIIS, if invoked, will attempt to extrapolate 
          using up to (NFOCK): 10 stored Fock matrices.

                    Damping( 0%)  Levelshifting(0.5)       DIIS
                  --------------- ------------------- ---------------
          dE  on:    start            ASAP                start   
          dE off:    2 iters         30 iters            30 iters 

 
      Screening Tolerance Information
      -------------------------------
          Density screening/tol_rho:  1.00D-10
          AO Gaussian exp screening on grid/accAOfunc:  14
          CD Gaussian exp screening on grid/accCDfunc:  20
          XC Gaussian exp screening on grid/accXCfunc:  20
          Schwarz screening/accCoul:  1.00D-08

 
      Superposition of Atomic Density Guess
      -------------------------------------
 
 Sum of atomic energies:         -75.75081731
 
      Non-variational initial energy
      ------------------------------

 Total energy =     -75.912761
 1-e energy   =    -121.678935
 2-e energy   =      36.605967
 HOMO         =      -0.470501
 LUMO         =       0.113682
 
   Time after variat. SCF:      0.4
   Time prior to 1st pass:      0.4

 Grid_pts file          = ./sq.gridpts.00
 Record size in doubles =  12289        No. of grid_pts per rec  =   3070
 Max. records in memory =      3        Max. recs in file   =  53328984


           Memory utilization after 1st SCF pass: 
           Heap Space remaining (MW):        6.78             6777186
          Stack Space remaining (MW):       13.11            13106924

   convergence    iter        energy       DeltaE   RMS-Dens  Diis-err    time
 ---------------- ----- ----------------- --------- --------- ---------  ------
 d= 0,ls=0.0,diis     1    -76.3004288415 -8.55D+01  2.64D-02  3.84D-01     0.4
 d= 0,ls=0.0,diis     2    -76.2995091848  9.20D-04  1.34D-02  4.24D-01     0.5
 d= 0,ls=0.0,diis     3    -76.3363021329 -3.68D-02  1.56D-03  7.70D-03     0.5
 d= 0,ls=0.0,diis     4    -76.3369752078 -6.73D-04  1.41D-04  5.06D-05     0.5
 d= 0,ls=0.0,diis     5    -76.3369802021 -4.99D-06  9.13D-06  1.41D-07     0.5
 d= 0,ls=0.0,diis     6    -76.3369802170 -1.49D-08  1.15D-06  7.57D-10     0.5


         Total DFT energy =      -76.336980217021
      One electron energy =     -123.073279069495
           Coulomb energy =       46.846201098080
    Exchange-Corr. energy =       -9.270109659686
 Nuclear repulsion energy =        9.160207414080

 Numeric. integr. density =       10.000001092020

     Total iterative time =      0.1s


 
                       DFT Final Molecular Orbital Analysis
                       ------------------------------------
 
 Vector    1  Occ=2.000000D+00  E=-1.921037D+01
              MO Center= -2.5D-15,  2.5D-06,  2.0D-01, r^2= 1.5D-02
   Bfn.  Coefficient  Atom+Function         Bfn.  Coefficient  Atom+Function  
  ----- ------------  ---------------      ----- ------------  ---------------
     1      0.993146  1 O  s                  2      0.025626  1 O  s          
 
 Vector    2  Occ=2.000000D+00  E=-1.024521D+00
              MO Center= -6.0D-13,  8.8D-07,  4.1D-01, r^2= 5.0D-01
   Bfn.  Coefficient  Atom+Function         Bfn.  Coefficient  Atom+Function  
  ----- ------------  ---------------      ----- ------------  ---------------
     2      0.466740  1 O  s                  6      0.419699  1 O  s          
     1     -0.209882  1 O  s                 16      0.151111  2 H  s          
    21      0.151111  3 H  s                  5      0.115474  1 O  pz         
     9      0.042529  1 O  pz         
 
 Vector    3  Occ=2.000000D+00  E=-5.295919D-01
              MO Center= -1.6D-13,  1.1D-06,  4.2D-01, r^2= 7.8D-01
   Bfn.  Coefficient  Atom+Function         Bfn.  Coefficient  Atom+Function  
  ----- ------------  ---------------      ----- ------------  ---------------
     4      0.512247  1 O  py                 8      0.254745  1 O  py         
    16     -0.244580  2 H  s                 21      0.244580  3 H  s          
    17     -0.147487  2 H  s                 22      0.147487  3 H  s          
    14      0.050224  1 O  dyz        
 
 Vector    4  Occ=2.000000D+00  E=-3.846084D-01
              MO Center= -1.1D-12,  3.0D-06,  1.3D-01, r^2= 6.9D-01
   Bfn.  Coefficient  Atom+Function         Bfn.  Coefficient  Atom+Function  
  ----- ------------  ---------------      ----- ------------  ---------------
     5      0.551937  1 O  pz                 6     -0.395095  1 O  s          
     9      0.370783  1 O  pz                 2     -0.176051  1 O  s          
    16      0.144057  2 H  s                 21      0.144057  3 H  s          
    17      0.108218  2 H  s                 22      0.108218  3 H  s          
     1      0.085376  1 O  s                 15      0.043518  1 O  dzz        
 
 Vector    5  Occ=2.000000D+00  E=-3.051478D-01
              MO Center=  9.3D-13,  2.3D-06,  2.3D-01, r^2= 6.0D-01
   Bfn.  Coefficient  Atom+Function         Bfn.  Coefficient  Atom+Function  
  ----- ------------  ---------------      ----- ------------  ---------------
     3      0.640438  1 O  px                 7      0.497812  1 O  px         
    12      0.051232  1 O  dxz        
 
 Vector    6  Occ=0.000000D+00  E= 8.471485D-02
              MO Center=  3.6D-13, -1.6D-06,  9.5D-01, r^2= 2.4D+00
   Bfn.  Coefficient  Atom+Function         Bfn.  Coefficient  Atom+Function  
  ----- ------------  ---------------      ----- ------------  ---------------
     6      1.270130  1 O  s                 17     -0.974206  2 H  s          
    22     -0.974207  3 H  s                  9      0.469912  1 O  pz         
     5      0.268482  1 O  pz                 2      0.117096  1 O  s          
     1     -0.101125  1 O  s                 16     -0.090099  2 H  s          
    21     -0.090099  3 H  s                 10     -0.056262  1 O  dxx        
 
 Vector    7  Occ=0.000000D+00  E= 1.706294D-01
              MO Center= -2.7D-14, -3.8D-06,  9.0D-01, r^2= 2.5D+00
   Bfn.  Coefficient  Atom+Function         Bfn.  Coefficient  Atom+Function  
  ----- ------------  ---------------      ----- ------------  ---------------
    17      1.297940  2 H  s                 22     -1.297938  3 H  s          
     8      0.765849  1 O  py                 4      0.402596  1 O  py         
    16      0.103730  2 H  s                 21     -0.103730  3 H  s          
    14      0.028011  1 O  dyz        
 
 Vector    8  Occ=0.000000D+00  E= 7.787528D-01
              MO Center= -2.9D-14,  2.9D-06,  5.7D-01, r^2= 1.7D+00
   Bfn.  Coefficient  Atom+Function         Bfn.  Coefficient  Atom+Function  
  ----- ------------  ---------------      ----- ------------  ---------------
    17     -0.783323  2 H  s                 22      0.783326  3 H  s          
    16      0.765665  2 H  s                 21     -0.765667  3 H  s          
    14     -0.471860  1 O  dyz                4      0.192557  1 O  py         
     8      0.183155  1 O  py                20      0.101903  2 H  pz         
    25     -0.101904  3 H  pz                19     -0.050391  2 H  py         
 
 Vector    9  Occ=0.000000D+00  E= 8.314615D-01
              MO Center= -4.6D-13, -2.2D-06,  5.0D-01, r^2= 1.5D+00
   Bfn.  Coefficient  Atom+Function         Bfn.  Coefficient  Atom+Function  
  ----- ------------  ---------------      ----- ------------  ---------------
     5      0.636353  1 O  pz                17      0.596903  2 H  s          
    22      0.596900  3 H  s                 16     -0.568440  2 H  s          
    21     -0.568437  3 H  s                  9     -0.541580  1 O  pz         
    13     -0.273564  1 O  dyy                6     -0.228270  1 O  s          
    19      0.169935  2 H  py                24     -0.169934  3 H  py         
 
 Vector   10  Occ=0.000000D+00  E= 9.150762D-01
              MO Center= -2.5D-11,  4.0D-06,  5.4D-02, r^2= 1.4D+00
   Bfn.  Coefficient  Atom+Function         Bfn.  Coefficient  Atom+Function  
  ----- ------------  ---------------      ----- ------------  ---------------
     6      1.355942  1 O  s                  2     -0.816482  1 O  s          
     9     -0.811540  1 O  pz                 5      0.538189  1 O  pz         
    16      0.493996  2 H  s                 21      0.493995  3 H  s          
    17     -0.375884  2 H  s                 22     -0.375885  3 H  s          
    10     -0.325604  1 O  dxx               15     -0.278048  1 O  dzz        
 
 Vector   11  Occ=0.000000D+00  E= 9.183614D-01
              MO Center=  2.4D-11,  2.5D-06,  2.1D-01, r^2= 1.1D+00
   Bfn.  Coefficient  Atom+Function         Bfn.  Coefficient  Atom+Function  
  ----- ------------  ---------------      ----- ------------  ---------------
     7     -1.035895  1 O  px                 3      0.961953  1 O  px         
    12     -0.029329  1 O  dxz        
 
 Vector   12  Occ=0.000000D+00  E= 1.041551D+00
              MO Center=  1.3D-14,  1.9D-06,  2.1D-01, r^2= 1.6D+00
   Bfn.  Coefficient  Atom+Function         Bfn.  Coefficient  Atom+Function  
  ----- ------------  ---------------      ----- ------------  ---------------
     8      1.799123  1 O  py                17      0.976781  2 H  s          
    22     -0.976780  3 H  s                  4     -0.865226  1 O  py         
    14      0.170827  1 O  dyz               16      0.149348  2 H  s          
    19      0.149014  2 H  py                21     -0.149349  3 H  s          
    24      0.149012  3 H  py                20     -0.093616  2 H  pz         
 
 Vector   13  Occ=0.000000D+00  E= 1.192047D+00
              MO Center=  1.3D-12, -1.2D-06,  7.0D-01, r^2= 1.4D+00
   Bfn.  Coefficient  Atom+Function         Bfn.  Coefficient  Atom+Function  
  ----- ------------  ---------------      ----- ------------  ---------------
     6      3.534243  1 O  s                  2     -1.424617  1 O  s          
     9      0.988119  1 O  pz                17     -0.780234  2 H  s          
    22     -0.780233  3 H  s                 13     -0.626139  1 O  dyy        
     5     -0.357007  1 O  pz                15     -0.326853  1 O  dzz        
    16     -0.317194  2 H  s                 21     -0.317194  3 H  s          
 
 Vector   14  Occ=0.000000D+00  E= 1.537343D+00
              MO Center=  1.1D-13,  8.4D-07,  4.5D-01, r^2= 7.7D-01
   Bfn.  Coefficient  Atom+Function         Bfn.  Coefficient  Atom+Function  
  ----- ------------  ---------------      ----- ------------  ---------------
    11      1.177763  1 O  dxy               18     -0.349418  2 H  px         
    23      0.349419  3 H  px         
 
 Vector   15  Occ=0.000000D+00  E= 1.548380D+00
              MO Center=  1.1D-13,  1.8D-06,  2.9D-01, r^2= 8.4D-01
   Bfn.  Coefficient  Atom+Function         Bfn.  Coefficient  Atom+Function  
  ----- ------------  ---------------      ----- ------------  ---------------
     6      0.921861  1 O  s                 15     -0.791501  1 O  dzz        
     9      0.526085  1 O  pz                 2     -0.330262  1 O  s          
    10      0.250727  1 O  dxx               13      0.247725  1 O  dyy        
    20     -0.246878  2 H  pz                25     -0.246875  3 H  pz         
    16     -0.240921  2 H  s                 21     -0.240921  3 H  s          
 
 Vector   16  Occ=0.000000D+00  E= 1.653299D+00
              MO Center=  8.3D-14,  1.7D-06,  3.0D-01, r^2= 7.6D-01
   Bfn.  Coefficient  Atom+Function         Bfn.  Coefficient  Atom+Function  
  ----- ------------  ---------------      ----- ------------  ---------------
    12      1.358548  1 O  dxz               18      0.299069  2 H  px         
    23      0.299069  3 H  px                 7     -0.205463  1 O  px         
 
 Vector   17  Occ=0.000000D+00  E= 2.259693D+00
              MO Center=  1.2D-13,  1.9D-06,  4.1D-01, r^2= 8.8D-01
   Bfn.  Coefficient  Atom+Function         Bfn.  Coefficient  Atom+Function  
  ----- ------------  ---------------      ----- ------------  ---------------
     6      1.397360  1 O  s                 10     -1.069834  1 O  dxx        
     9      0.648800  1 O  pz                16     -0.635747  2 H  s          
    21     -0.635748  3 H  s                  2     -0.573996  1 O  s          
    13      0.522213  1 O  dyy                5     -0.207771  1 O  pz         
    19      0.159944  2 H  py                24     -0.159944  3 H  py         
 
 Vector   18  Occ=0.000000D+00  E= 2.285018D+00
              MO Center=  7.3D-15, -1.1D-06,  7.4D-01, r^2= 1.0D+00
   Bfn.  Coefficient  Atom+Function         Bfn.  Coefficient  Atom+Function  
  ----- ------------  ---------------      ----- ------------  ---------------
    20      0.582615  2 H  pz                25     -0.582609  3 H  pz         
     8     -0.487092  1 O  py                19      0.481210  2 H  py         
    24      0.481218  3 H  py                14      0.244728  1 O  dyz        
    16     -0.109619  2 H  s                 21      0.109617  3 H  s          
    17     -0.104505  2 H  s                 22      0.104504  3 H  s          
 
 Vector   19  Occ=0.000000D+00  E= 2.476749D+00
              MO Center=  4.2D-14, -1.5D-07,  4.9D-01, r^2= 9.8D-01
   Bfn.  Coefficient  Atom+Function         Bfn.  Coefficient  Atom+Function  
  ----- ------------  ---------------      ----- ------------  ---------------
    14      1.398501  1 O  dyz               16      0.547965  2 H  s          
    21     -0.547962  3 H  s                  8      0.495804  1 O  py         
     4     -0.340887  1 O  py                19     -0.326776  2 H  py         
    24     -0.326773  3 H  py                20      0.235061  2 H  pz         
    25     -0.235065  3 H  pz                17     -0.197315  2 H  s          
 
 Vector   20  Occ=0.000000D+00  E= 2.661370D+00
              MO Center=  3.8D-14,  9.0D-06,  5.3D-01, r^2= 9.8D-01
   Bfn.  Coefficient  Atom+Function         Bfn.  Coefficient  Atom+Function  
  ----- ------------  ---------------      ----- ------------  ---------------
    11      1.531655  1 O  dxy               18      0.712082  2 H  px         
    23     -0.712096  3 H  px         
 
 Vector   21  Occ=0.000000D+00  E= 2.685028D+00
              MO Center=  5.4D-14, -9.2D-06,  6.2D-01, r^2= 1.0D+00
   Bfn.  Coefficient  Atom+Function         Bfn.  Coefficient  Atom+Function  
  ----- ------------  ---------------      ----- ------------  ---------------
    12      1.277825  1 O  dxz               18     -0.765561  2 H  px         
    23     -0.765548  3 H  px                 7      0.419542  1 O  px         
 
 Vector   22  Occ=0.000000D+00  E= 3.052079D+00
              MO Center=  2.5D-14, -1.1D-07,  5.4D-01, r^2= 1.0D+00
   Bfn.  Coefficient  Atom+Function         Bfn.  Coefficient  Atom+Function  
  ----- ------------  ---------------      ----- ------------  ---------------
    15      0.953231  1 O  dzz               13     -0.751876  1 O  dyy        
    20     -0.677052  2 H  pz                25     -0.677045  3 H  pz         
     9      0.470386  1 O  pz                19     -0.456137  2 H  py         
    24      0.456146  3 H  py                 2     -0.181553  1 O  s          
     6      0.149528  1 O  s                 16     -0.095874  2 H  s          
 
 Vector   23  Occ=0.000000D+00  E= 3.343931D+00
              MO Center= -2.4D-16,  3.1D-07,  6.7D-01, r^2= 1.1D+00
   Bfn.  Coefficient  Atom+Function         Bfn.  Coefficient  Atom+Function  
  ----- ------------  ---------------      ----- ------------  ---------------
     6      2.855161  1 O  s                 10     -1.191232  1 O  dxx        
     9      0.851249  1 O  pz                16     -0.786566  2 H  s          
    21     -0.786569  3 H  s                 19     -0.761638  2 H  py         
    24      0.761633  3 H  py                17     -0.575532  2 H  s          
    22     -0.575533  3 H  s                 20      0.462306  2 H  pz         
 
 Vector   24  Occ=0.000000D+00  E= 3.565095D+00
              MO Center=  1.2D-14, -3.2D-07,  4.2D-01, r^2= 1.1D+00
   Bfn.  Coefficient  Atom+Function         Bfn.  Coefficient  Atom+Function  
  ----- ------------  ---------------      ----- ------------  ---------------
    14      2.568952  1 O  dyz                8      1.344223  1 O  py         
    16      1.201622  2 H  s                 21     -1.201619  3 H  s          
    19      0.811631  2 H  py                24      0.811619  3 H  py         
     4      0.713342  1 O  py                20     -0.698639  2 H  pz         
    25      0.698650  3 H  pz                17      0.537693  2 H  s          
 
 Vector   25  Occ=0.000000D+00  E= 3.726452D+00
              MO Center= -3.8D-14,  3.5D-06,  8.8D-02, r^2= 9.1D-01
   Bfn.  Coefficient  Atom+Function         Bfn.  Coefficient  Atom+Function  
  ----- ------------  ---------------      ----- ------------  ---------------
     6      2.600062  1 O  s                 13     -1.949015  1 O  dyy        
    15     -1.575671  1 O  dzz               10     -1.136596  1 O  dxx        
    16      0.673900  2 H  s                 21      0.673898  3 H  s          
    19      0.491375  2 H  py                24     -0.491368  3 H  py         
     5     -0.470457  1 O  pz                20     -0.435610  2 H  pz         
 

 center of mass
 --------------
 x =   0.00000000 y =   0.00000378 z =   0.50845973

 moments of inertia (a.u.)
 ------------------
           6.364810795532           0.000000000000           0.000000000000
           0.000000000000           2.241015021167          -0.000014610530
           0.000000000000          -0.000014610530           4.123795774365
 
     Multipole analysis of the density
     ---------------------------------
 
     L   x y z        total         alpha         beta         nuclear
     -   - - -        -----         -----         ----         -------
     0   0 0 0     -0.000000     -5.000000     -5.000000     10.000000
 
     1   1 0 0      0.000000      0.000000      0.000000      0.000000
     1   0 1 0     -0.000006     -0.000018     -0.000018      0.000031
     1   0 0 1      0.815194     -2.627490     -2.627490      6.070173
 
     2   2 0 0     -5.308989     -2.654495     -2.654495      0.000000
     2   1 1 0      0.000000      0.000000      0.000000      0.000000
     2   1 0 1      0.000000      0.000000      0.000000      0.000000
     2   0 2 0     -3.152766     -3.622272     -3.622272      4.091778
     2   0 1 1      0.000009     -0.000013     -0.000013      0.000035
     2   0 0 2     -3.439600     -4.563683     -4.563683      5.687765
 
 
            General Information
            -------------------
          SCF calculation type: DFT
          Wavefunction type:  closed shell.
          No. of atoms     :     3
          No. of electrons :    10
           Alpha electrons :     5
            Beta electrons :     5
          Charge           :     0
          Spin multiplicity:     1
          Use of symmetry is: off; symmetry adaption is: off
          Maximum number of iterations:  30
          AO basis - number of functions:    25
                     number of shells:    12
          Convergence on energy requested:  1.00D-06
          Convergence on density requested:  1.00D-05
          Convergence on gradient requested:  5.00D-04
 
              XC Information
              --------------
                         PBE0 Method XC Functional
                     Hartree-Fock (Exact) Exchange  0.250          
          PerdewBurkeErnzerhof Exchange Functional  0.750          
            Perdew 1991 LDA Correlation Functional  1.000 local    
           PerdewBurkeErnz. Correlation Functional  1.000 non-local
 
             Grid Information
             ----------------
          Grid used for XC integration:  medium    
          Radial quadrature: Mura-Knowles        
          Angular quadrature: Lebedev. 
          Tag              B.-S. Rad. Rad. Pts. Rad. Cut. Ang. Pts.
          ---              ---------- --------- --------- ---------
          O                   0.60       49           5.0       434
          H                   0.35       45           6.0       434
          Grid pruning is: on 
          Number of quadrature shells:   139
          Spatial weights used:  Erf1
 
          Convergence Information
          -----------------------
          Convergence aids based upon iterative change in 
          total energy or number of iterations. 
          Levelshifting, if invoked, occurs when the 
          HOMO/LUMO gap drops below (HL_TOL):  1.00D-02
          DIIS, if invoked, will attempt to extrapolate 
          using up to (NFOCK): 10 stored Fock matrices.

                    Damping( 0%)  Levelshifting(0.5)       DIIS
                  --------------- ------------------- ---------------
          dE  on:    start            ASAP                start   
          dE off:    2 iters         30 iters            30 iters 

 
      Screening Tolerance Information
      -------------------------------
          Density screening/tol_rho:  1.00D-10
          AO Gaussian exp screening on grid/accAOfunc:  14
          CD Gaussian exp screening on grid/accCDfunc:  20
          XC Gaussian exp screening on grid/accXCfunc:  20
          Schwarz screening/accCoul:  1.00D-08

 
 
                            NWChem DFT Gradient Module
                            --------------------------
 
 
                              PBE0/6-31G** frequency
 
 

  charge          =   0.00
  wavefunction    = closed shell



                         DFT ENERGY GRADIENTS

    atom               coordinates                        gradient
                 x          y          z           x          y          z
   1 O       0.000000   0.000005   0.383239   -0.000000  -0.000000   0.000006
   2 H       0.000000  -1.430349   1.502119    0.000000   0.000004  -0.000003
   3 H       0.000000   1.430343   1.502140    0.000000  -0.000004  -0.000003
 
                 ----------------------------------------
                 |  Time  |  1-e(secs)   |  2-e(secs)   |
                 ----------------------------------------
                 |  CPU   |       0.00   |       0.00   |
                 ----------------------------------------
                 |  WALL  |       0.00   |       0.00   |
                 ----------------------------------------

@ Step       Energy      Delta E   Gmax     Grms     Xrms     Xmax   Walltime
@ ---- ---------------- -------- -------- -------- -------- -------- --------
@    0     -76.33698022  0.0D+00  0.00001  0.00000  0.00000  0.00000      0.6
                                     ok       ok       ok       ok  



                                Z-matrix (autoz)
                                -------- 

 Units are Angstrom for bonds and degrees for angles
 
      Type          Name      I     J     K     L     M      Value     Gradient
      ----------- --------  ----- ----- ----- ----- ----- ---------- ----------
    1 Stretch                  1     2                       0.96098   -0.00001
    2 Stretch                  1     3                       0.96098   -0.00000
    3 Bend                     2     1     3               103.93129    0.00000
 
 
                                 NWChem DFT Module
                                 -----------------
 
 
                              PBE0/6-31G** frequency
 
 


 Summary of "ao basis" -> "ao basis" (cartesian)
 ------------------------------------------------------------------------------
       Tag                 Description            Shells   Functions and Types
 ---------------- ------------------------------  ------  ---------------------
 O                          6-31G**                  6       15   3s2p1d
 H                          6-31G**                  3        5   2s1p


  Caching 1-el integrals 
 
            General Information
            -------------------
          SCF calculation type: DFT
          Wavefunction type:  closed shell.
          No. of atoms     :     3
          No. of electrons :    10
           Alpha electrons :     5
            Beta electrons :     5
          Charge           :     0
          Spin multiplicity:     1
          Use of symmetry is: off; symmetry adaption is: off
          Maximum number of iterations:  30
          AO basis - number of functions:    25
                     number of shells:    12
          Convergence on energy requested:  1.00D-06
          Convergence on density requested:  1.00D-05
          Convergence on gradient requested:  5.00D-04
 
              XC Information
              --------------
                         PBE0 Method XC Functional
                     Hartree-Fock (Exact) Exchange  0.250          
          PerdewBurkeErnzerhof Exchange Functional  0.750          
            Perdew 1991 LDA Correlation Functional  1.000 local    
           PerdewBurkeErnz. Correlation Functional  1.000 non-local
 
             Grid Information
             ----------------
          Grid used for XC integration:  medium    
          Radial quadrature: Mura-Knowles        
          Angular quadrature: Lebedev. 
          Tag              B.-S. Rad. Rad. Pts. Rad. Cut. Ang. Pts.
          ---              ---------- --------- --------- ---------
          O                   0.60       49           5.0       434
          H                   0.35       45           6.0       434
          Grid pruning is: on 
          Number of quadrature shells:   139
          Spatial weights used:  Erf1
 
          Convergence Information
          -----------------------
          Convergence aids based upon iterative change in 
          total energy or number of iterations. 
          Levelshifting, if invoked, occurs when the 
          HOMO/LUMO gap drops below (HL_TOL):  1.00D-02
          DIIS, if invoked, will attempt to extrapolate 
          using up to (NFOCK): 10 stored Fock matrices.

                    Damping( 0%)  Levelshifting(0.5)       DIIS
                  --------------- ------------------- ---------------
          dE  on:    start            ASAP                start   
          dE off:    2 iters         30 iters            30 iters 

 
      Screening Tolerance Information
      -------------------------------
          Density screening/tol_rho:  1.00D-10
          AO Gaussian exp screening on grid/accAOfunc:  14
          CD Gaussian exp screening on grid/accCDfunc:  20
          XC Gaussian exp screening on grid/accXCfunc:  20
          Schwarz screening/accCoul:  1.00D-08


 Loading old vectors from job with title :

PBE0/6-31G** frequency

   Time after variat. SCF:      1.1
   Time prior to 1st pass:      1.1

 Grid_pts file          = ./sq.gridpts.00
 Record size in doubles =  12289        No. of grid_pts per rec  =   3070
 Max. records in memory =      3        Max. recs in file   =  53328984


           Memory utilization after 1st SCF pass: 
           Heap Space remaining (MW):        6.78             6777186
          Stack Space remaining (MW):       13.11            13106924

   convergence    iter        energy       DeltaE   RMS-Dens  Diis-err    time
 ---------------- ----- ----------------- --------- --------- ---------  ------
 d= 0,ls=0.0,diis     1    -76.3369802171 -8.55D+01  6.23D-07  2.76D-10     1.2
 d= 0,ls=0.0,diis     2    -76.3369802171 -2.16D-11  2.90D-07  1.71D-10     1.2


         Total DFT energy =      -76.336980217136
      One electron energy =     -123.073168518214
           Coulomb energy =       46.846157356163
    Exchange-Corr. energy =       -9.270103985635
 Nuclear repulsion energy =        9.160134930551

 Numeric. integr. density =       10.000001092150

     Total iterative time =      0.0s


 
                       DFT Final Molecular Orbital Analysis
                       ------------------------------------
 
 Vector    1  Occ=2.000000D+00  E=-1.921038D+01
              MO Center= -1.2D-16,  2.7D-06,  2.0D-01, r^2= 1.5D-02
   Bfn.  Coefficient  Atom+Function         Bfn.  Coefficient  Atom+Function  
  ----- ------------  ---------------      ----- ------------  ---------------
     1      0.993146  1 O  s                  2      0.025626  1 O  s          
 
 Vector    2  Occ=2.000000D+00  E=-1.024518D+00
              MO Center=  2.1D-14,  1.3D-06,  4.1D-01, r^2= 5.0D-01
   Bfn.  Coefficient  Atom+Function         Bfn.  Coefficient  Atom+Function  
  ----- ------------  ---------------      ----- ------------  ---------------
     2      0.466741  1 O  s                  6      0.419702  1 O  s          
     1     -0.209882  1 O  s                 16      0.151109  2 H  s          
    21      0.151109  3 H  s                  5      0.115473  1 O  pz         
     9      0.042529  1 O  pz         
 
 Vector    3  Occ=2.000000D+00  E=-5.295890D-01
              MO Center= -2.1D-15,  9.4D-07,  4.2D-01, r^2= 7.8D-01
   Bfn.  Coefficient  Atom+Function         Bfn.  Coefficient  Atom+Function  
  ----- ------------  ---------------      ----- ------------  ---------------
     4      0.512246  1 O  py                 8      0.254746  1 O  py         
    16     -0.244579  2 H  s                 21      0.244579  3 H  s          
    17     -0.147489  2 H  s                 22      0.147489  3 H  s          
    14      0.050224  1 O  dyz        
 
 Vector    4  Occ=2.000000D+00  E=-3.846080D-01
              MO Center= -2.4D-14,  3.2D-06,  1.3D-01, r^2= 6.9D-01
   Bfn.  Coefficient  Atom+Function         Bfn.  Coefficient  Atom+Function  
  ----- ------------  ---------------      ----- ------------  ---------------
     5      0.551936  1 O  pz                 6     -0.395093  1 O  s          
     9      0.370782  1 O  pz                 2     -0.176051  1 O  s          
    16      0.144058  2 H  s                 21      0.144058  3 H  s          
    17      0.108219  2 H  s                 22      0.108219  3 H  s          
     1      0.085376  1 O  s                 15      0.043518  1 O  dzz        
 
 Vector    5  Occ=2.000000D+00  E=-3.051473D-01
              MO Center= -3.6D-14,  2.5D-06,  2.3D-01, r^2= 6.0D-01
   Bfn.  Coefficient  Atom+Function         Bfn.  Coefficient  Atom+Function  
  ----- ------------  ---------------      ----- ------------  ---------------
     3      0.640439  1 O  px                 7      0.497812  1 O  px         
    12      0.051232  1 O  dxz        
 
 Vector    6  Occ=0.000000D+00  E= 8.471260D-02
              MO Center=  6.8D-14, -3.5D-06,  9.5D-01, r^2= 2.4D+00
   Bfn.  Coefficient  Atom+Function         Bfn.  Coefficient  Atom+Function  
  ----- ------------  ---------------      ----- ------------  ---------------
     6      1.270113  1 O  s                 17     -0.974199  2 H  s          
    22     -0.974199  3 H  s                  9      0.469913  1 O  pz         
     5      0.268485  1 O  pz                 2      0.117097  1 O  s          
     1     -0.101125  1 O  s                 16     -0.090101  2 H  s          
    21     -0.090101  3 H  s                 10     -0.056261  1 O  dxx        
 
 Vector    7  Occ=0.000000D+00  E= 1.706266D-01
              MO Center=  1.5D-15, -1.6D-06,  9.0D-01, r^2= 2.5D+00
   Bfn.  Coefficient  Atom+Function         Bfn.  Coefficient  Atom+Function  
  ----- ------------  ---------------      ----- ------------  ---------------
    17      1.297921  2 H  s                 22     -1.297922  3 H  s          
     8      0.765844  1 O  py                 4      0.402598  1 O  py         
    16      0.103733  2 H  s                 21     -0.103733  3 H  s          
    14      0.028010  1 O  dyz        
 
 Vector    8  Occ=0.000000D+00  E= 7.787496D-01
              MO Center=  3.7D-15, -1.8D-06,  5.7D-01, r^2= 1.7D+00
   Bfn.  Coefficient  Atom+Function         Bfn.  Coefficient  Atom+Function  
  ----- ------------  ---------------      ----- ------------  ---------------
    17     -0.783343  2 H  s                 22      0.783341  3 H  s          
    16      0.765668  2 H  s                 21     -0.765666  3 H  s          
    14     -0.471857  1 O  dyz                4      0.192562  1 O  py         
     8      0.183132  1 O  py                20      0.101902  2 H  pz         
    25     -0.101903  3 H  pz                19     -0.050391  2 H  py         
 
 Vector    9  Occ=0.000000D+00  E= 8.314564D-01
              MO Center=  1.5D-15,  1.9D-06,  5.0D-01, r^2= 1.5D+00
   Bfn.  Coefficient  Atom+Function         Bfn.  Coefficient  Atom+Function  
  ----- ------------  ---------------      ----- ------------  ---------------
     5      0.636335  1 O  pz                17      0.596920  2 H  s          
    22      0.596921  3 H  s                 16     -0.568460  2 H  s          
    21     -0.568462  3 H  s                  9     -0.541552  1 O  pz         
    13     -0.273553  1 O  dyy                6     -0.228322  1 O  s          
    19      0.169932  2 H  py                24     -0.169931  3 H  py         
 
 Vector   10  Occ=0.000000D+00  E= 9.150750D-01
              MO Center=  7.0D-13,  3.5D-06,  5.4D-02, r^2= 1.4D+00
   Bfn.  Coefficient  Atom+Function         Bfn.  Coefficient  Atom+Function  
  ----- ------------  ---------------      ----- ------------  ---------------
     6      1.355957  1 O  s                  2     -0.816485  1 O  s          
     9     -0.811550  1 O  pz                 5      0.538211  1 O  pz         
    16      0.493971  2 H  s                 21      0.493972  3 H  s          
    17     -0.375870  2 H  s                 22     -0.375870  3 H  s          
    10     -0.325600  1 O  dxx               15     -0.278053  1 O  dzz        
 
 Vector   11  Occ=0.000000D+00  E= 9.183613D-01
              MO Center= -6.5D-13,  2.6D-06,  2.1D-01, r^2= 1.1D+00
   Bfn.  Coefficient  Atom+Function         Bfn.  Coefficient  Atom+Function  
  ----- ------------  ---------------      ----- ------------  ---------------
     7     -1.035893  1 O  px                 3      0.961953  1 O  px         
    12     -0.029330  1 O  dxz        
 
 Vector   12  Occ=0.000000D+00  E= 1.041550D+00
              MO Center=  8.4D-15,  2.9D-06,  2.1D-01, r^2= 1.6D+00
   Bfn.  Coefficient  Atom+Function         Bfn.  Coefficient  Atom+Function  
  ----- ------------  ---------------      ----- ------------  ---------------
     8      1.799113  1 O  py                17      0.976760  2 H  s          
    22     -0.976760  3 H  s                  4     -0.865228  1 O  py         
    14      0.170813  1 O  dyz               16      0.149350  2 H  s          
    19      0.149013  2 H  py                21     -0.149350  3 H  s          
    24      0.149011  3 H  py                20     -0.093612  2 H  pz         
 
 Vector   13  Occ=0.000000D+00  E= 1.192045D+00
              MO Center= -6.6D-14, -8.7D-07,  7.0D-01, r^2= 1.4D+00
   Bfn.  Coefficient  Atom+Function         Bfn.  Coefficient  Atom+Function  
  ----- ------------  ---------------      ----- ------------  ---------------
     6      3.534212  1 O  s                  2     -1.424611  1 O  s          
     9      0.988118  1 O  pz                17     -0.780221  2 H  s          
    22     -0.780221  3 H  s                 13     -0.626140  1 O  dyy        
     5     -0.357011  1 O  pz                15     -0.326852  1 O  dzz        
    16     -0.317196  2 H  s                 21     -0.317196  3 H  s          
 
 Vector   14  Occ=0.000000D+00  E= 1.537343D+00
              MO Center= -6.5D-15,  8.1D-07,  4.5D-01, r^2= 7.7D-01
   Bfn.  Coefficient  Atom+Function         Bfn.  Coefficient  Atom+Function  
  ----- ------------  ---------------      ----- ------------  ---------------
    11      1.177764  1 O  dxy               18     -0.349420  2 H  px         
    23      0.349420  3 H  px         
 
 Vector   15  Occ=0.000000D+00  E= 1.548380D+00
              MO Center=  1.7D-15,  2.0D-06,  2.9D-01, r^2= 8.4D-01
   Bfn.  Coefficient  Atom+Function         Bfn.  Coefficient  Atom+Function  
  ----- ------------  ---------------      ----- ------------  ---------------
     6      0.921855  1 O  s                 15     -0.791503  1 O  dzz        
     9      0.526087  1 O  pz                 2     -0.330262  1 O  s          
    10      0.250725  1 O  dxx               13      0.247728  1 O  dyy        
    20     -0.246878  2 H  pz                25     -0.246875  3 H  pz         
    16     -0.240921  2 H  s                 21     -0.240921  3 H  s          
 
 Vector   16  Occ=0.000000D+00  E= 1.653299D+00
              MO Center= -7.0D-15,  2.0D-06,  3.0D-01, r^2= 7.6D-01
   Bfn.  Coefficient  Atom+Function         Bfn.  Coefficient  Atom+Function  
  ----- ------------  ---------------      ----- ------------  ---------------
    12      1.358548  1 O  dxz               18      0.299071  2 H  px         
    23      0.299071  3 H  px                 7     -0.205465  1 O  px         
 
 Vector   17  Occ=0.000000D+00  E= 2.259683D+00
              MO Center= -1.9D-15,  5.9D-07,  4.1D-01, r^2= 8.8D-01
   Bfn.  Coefficient  Atom+Function         Bfn.  Coefficient  Atom+Function  
  ----- ------------  ---------------      ----- ------------  ---------------
     6      1.397322  1 O  s                 10     -1.069828  1 O  dxx        
     9      0.648786  1 O  pz                16     -0.635736  2 H  s          
    21     -0.635735  3 H  s                  2     -0.573989  1 O  s          
    13      0.522209  1 O  dyy                5     -0.207775  1 O  pz         
    19      0.159947  2 H  py                24     -0.159943  3 H  py         
 
 Vector   18  Occ=0.000000D+00  E= 2.285010D+00
              MO Center=  6.2D-16, -1.4D-06,  7.4D-01, r^2= 1.0D+00
   Bfn.  Coefficient  Atom+Function         Bfn.  Coefficient  Atom+Function  
  ----- ------------  ---------------      ----- ------------  ---------------
    20      0.582614  2 H  pz                25     -0.582606  3 H  pz         
     8     -0.487091  1 O  py                19      0.481209  2 H  py         
    24      0.481218  3 H  py                14      0.244722  1 O  dyz        
    16     -0.109619  2 H  s                 21      0.109620  3 H  s          
    17     -0.104501  2 H  s                 22      0.104502  3 H  s          
 
 Vector   19  Occ=0.000000D+00  E= 2.476733D+00
              MO Center= -3.3D-16,  9.0D-07,  4.9D-01, r^2= 9.8D-01
   Bfn.  Coefficient  Atom+Function         Bfn.  Coefficient  Atom+Function  
  ----- ------------  ---------------      ----- ------------  ---------------
    14      1.398482  1 O  dyz               16      0.547953  2 H  s          
    21     -0.547955  3 H  s                  8      0.495786  1 O  py         
     4     -0.340888  1 O  py                19     -0.326775  2 H  py         
    24     -0.326772  3 H  py                20      0.235063  2 H  pz         
    25     -0.235068  3 H  pz                17     -0.197322  2 H  s          
 
 Vector   20  Occ=0.000000D+00  E= 2.661361D+00
              MO Center= -6.0D-15, -4.7D-06,  5.3D-01, r^2= 9.8D-01
   Bfn.  Coefficient  Atom+Function         Bfn.  Coefficient  Atom+Function  
  ----- ------------  ---------------      ----- ------------  ---------------
    11      1.531644  1 O  dxy               18      0.712089  2 H  px         
    23     -0.712081  3 H  px         
 
 Vector   21  Occ=0.000000D+00  E= 2.685019D+00
              MO Center= -6.3D-15,  4.5D-06,  6.2D-01, r^2= 1.0D+00
   Bfn.  Coefficient  Atom+Function         Bfn.  Coefficient  Atom+Function  
  ----- ------------  ---------------      ----- ------------  ---------------
    12      1.277817  1 O  dxz               18     -0.765546  2 H  px         
    23     -0.765554  3 H  px                 7      0.419539  1 O  px         
 
 Vector   22  Occ=0.000000D+00  E= 3.052065D+00
              MO Center=  1.1D-15,  3.0D-07,  5.4D-01, r^2= 1.0D+00
   Bfn.  Coefficient  Atom+Function         Bfn.  Coefficient  Atom+Function  
  ----- ------------  ---------------      ----- ------------  ---------------
    15      0.953216  1 O  dzz               13     -0.751874  1 O  dyy        
    20     -0.677050  2 H  pz                25     -0.677043  3 H  pz         
     9      0.470374  1 O  pz                19     -0.456127  2 H  py         
    24      0.456137  3 H  py                 2     -0.181550  1 O  s          
     6      0.149512  1 O  s                 16     -0.095866  2 H  s          
 
 Vector   23  Occ=0.000000D+00  E= 3.343916D+00
              MO Center= -6.6D-16, -1.5D-06,  6.7D-01, r^2= 1.1D+00
   Bfn.  Coefficient  Atom+Function         Bfn.  Coefficient  Atom+Function  
  ----- ------------  ---------------      ----- ------------  ---------------
     6      2.855136  1 O  s                 10     -1.191226  1 O  dxx        
     9      0.851256  1 O  pz                16     -0.786561  2 H  s          
    21     -0.786560  3 H  s                 19     -0.761644  2 H  py         
    24      0.761636  3 H  py                17     -0.575529  2 H  s          
    22     -0.575529  3 H  s                 20      0.462304  2 H  pz         
 
 Vector   24  Occ=0.000000D+00  E= 3.565085D+00
              MO Center=  6.5D-16,  1.8D-06,  4.2D-01, r^2= 1.1D+00
   Bfn.  Coefficient  Atom+Function         Bfn.  Coefficient  Atom+Function  
  ----- ------------  ---------------      ----- ------------  ---------------
    14      2.568943  1 O  dyz                8      1.344218  1 O  py         
    16      1.201595  2 H  s                 21     -1.201596  3 H  s          
    19      0.811624  2 H  py                24      0.811615  3 H  py         
     4      0.713314  1 O  py                20     -0.698637  2 H  pz         
    25      0.698649  3 H  pz                17      0.537687  2 H  s          
 
 Vector   25  Occ=0.000000D+00  E= 3.726447D+00
              MO Center= -1.7D-15,  3.4D-06,  8.8D-02, r^2= 9.1D-01
   Bfn.  Coefficient  Atom+Function         Bfn.  Coefficient  Atom+Function  
  ----- ------------  ---------------      ----- ------------  ---------------
     6      2.600068  1 O  s                 13     -1.948999  1 O  dyy        
    15     -1.575671  1 O  dzz               10     -1.136604  1 O  dxx        
    16      0.673871  2 H  s                 21      0.673872  3 H  s          
    19      0.491364  2 H  py                24     -0.491359  3 H  py         
     5     -0.470437  1 O  pz                20     -0.435597  2 H  pz         
 

 center of mass
 --------------
 x =   0.00000000 y =   0.00000409 z =   0.50845464

 moments of inertia (a.u.)
 ------------------
           6.364911451550           0.000000000000           0.000000000000
           0.000000000000           2.241051738991          -0.000013077766
           0.000000000000          -0.000013077766           4.123859712559
 
     Multipole analysis of the density
     ---------------------------------
 
     L   x y z        total         alpha         beta         nuclear
     -   - - -        -----         -----         ----         -------
     0   0 0 0     -0.000000     -5.000000     -5.000000     10.000000
 
     1   1 0 0      0.000000      0.000000      0.000000      0.000000
     1   0 1 0     -0.000006     -0.000020     -0.000020      0.000034
     1   0 0 1      0.815196     -2.627467     -2.627467      6.070130
 
     2   2 0 0     -5.309000     -2.654500     -2.654500      0.000000
     2   1 1 0      0.000000      0.000000      0.000000      0.000000
     2   1 0 1      0.000000      0.000000      0.000000      0.000000
     2   0 2 0     -3.152757     -3.622299     -3.622299      4.091841
     2   0 1 1      0.000008     -0.000013     -0.000013      0.000035
     2   0 0 2     -3.439604     -4.563675     -4.563675      5.687746
 
 Line search: 
     step= 1.00 grad=-1.5D-10 hess= 3.4D-11 energy=    -76.336980 mode=accept  
 new step= 1.00                   predicted energy=    -76.336980

          --------
          Step   1
          --------
 
 
                         Geometry "geometry" -> "geometry"
                         ---------------------------------
 
 Output coordinates in angstroms (scale by  1.889725989 to convert to a.u.)
 
  No.       Tag          Charge          X              Y              Z
 ---- ---------------- ---------- -------------- -------------- --------------
    1 O                    8.0000     0.00000000     0.00000266     0.20279825
    2 H                    1.0000     0.00000000    -0.75691401     0.79488896
    3 H                    1.0000     0.00000000     0.75691053     0.79489987
 
      Atomic Mass 
      ----------- 
 
      O                 15.994910
      H                  1.007825
 

 Effective nuclear repulsion energy (a.u.)       9.1601349306

            Nuclear Dipole moment (a.u.) 
            ----------------------------
        X                 Y               Z
 ---------------- ---------------- ----------------
     0.0000000000     0.0000335888     6.0701302073
 
 
                                 NWChem DFT Module
                                 -----------------
 
 
                              PBE0/6-31G** frequency
 
 


 Summary of "ao basis" -> "ao basis" (cartesian)
 ------------------------------------------------------------------------------
       Tag                 Description            Shells   Functions and Types
 ---------------- ------------------------------  ------  ---------------------
 O                          6-31G**                  6       15   3s2p1d
 H                          6-31G**                  3        5   2s1p



  The DFT is already converged 

         Total DFT energy =    -76.336980217136

 
            General Information
            -------------------
          SCF calculation type: DFT
          Wavefunction type:  closed shell.
          No. of atoms     :     3
          No. of electrons :    10
           Alpha electrons :     5
            Beta electrons :     5
          Charge           :     0
          Spin multiplicity:     1
          Use of symmetry is: off; symmetry adaption is: off
          Maximum number of iterations:  30
          AO basis - number of functions:    25
                     number of shells:    12
          Convergence on energy requested:  1.00D-06
          Convergence on density requested:  1.00D-05
          Convergence on gradient requested:  5.00D-04
 
              XC Information
              --------------
                         PBE0 Method XC Functional
                     Hartree-Fock (Exact) Exchange  0.250          
          PerdewBurkeErnzerhof Exchange Functional  0.750          
            Perdew 1991 LDA Correlation Functional  1.000 local    
           PerdewBurkeErnz. Correlation Functional  1.000 non-local
 
             Grid Information
             ----------------
          Grid used for XC integration:  medium    
          Radial quadrature: Mura-Knowles        
          Angular quadrature: Lebedev. 
          Tag              B.-S. Rad. Rad. Pts. Rad. Cut. Ang. Pts.
          ---              ---------- --------- --------- ---------
          O                   0.60       49           5.0       434
          H                   0.35       45           6.0       434
          Grid pruning is: on 
          Number of quadrature shells:   139
          Spatial weights used:  Erf1
 
          Convergence Information
          -----------------------
          Convergence aids based upon iterative change in 
          total energy or number of iterations. 
          Levelshifting, if invoked, occurs when the 
          HOMO/LUMO gap drops below (HL_TOL):  1.00D-02
          DIIS, if invoked, will attempt to extrapolate 
          using up to (NFOCK): 10 stored Fock matrices.

                    Damping( 0%)  Levelshifting(0.5)       DIIS
                  --------------- ------------------- ---------------
          dE  on:    start            ASAP                start   
          dE off:    2 iters         30 iters            30 iters 

 
      Screening Tolerance Information
      -------------------------------
          Density screening/tol_rho:  1.00D-10
          AO Gaussian exp screening on grid/accAOfunc:  14
          CD Gaussian exp screening on grid/accCDfunc:  20
          XC Gaussian exp screening on grid/accXCfunc:  20
          Schwarz screening/accCoul:  1.00D-08

 
 
                            NWChem DFT Gradient Module
                            --------------------------
 
 
                              PBE0/6-31G** frequency
 
 

  charge          =   0.00
  wavefunction    = closed shell



                         DFT ENERGY GRADIENTS

    atom               coordinates                        gradient
                 x          y          z           x          y          z
   1 O       0.000000   0.000005   0.383233   -0.000000   0.000000  -0.000003
   2 H       0.000000  -1.430360   1.502122    0.000000  -0.000003   0.000001
   3 H       0.000000   1.430353   1.502143    0.000000   0.000002   0.000001
 
                 ----------------------------------------
                 |  Time  |  1-e(secs)   |  2-e(secs)   |
                 ----------------------------------------
                 |  CPU   |       0.00   |       0.00   |
                 ----------------------------------------
                 |  WALL  |       0.00   |       0.00   |
                 ----------------------------------------

  Step       Energy      Delta E   Gmax     Grms     Xrms     Xmax   Walltime
  ---- ---------------- -------- -------- -------- -------- -------- --------
@    1     -76.33698022 -1.1D-10  0.00000  0.00000  0.00001  0.00001      1.4
                                     ok       ok       ok       ok  



                                Z-matrix (autoz)
                                -------- 

 Units are Angstrom for bonds and degrees for angles
 
      Type          Name      I     J     K     L     M      Value     Gradient
      ----------- --------  ----- ----- ----- ----- ----- ---------- ----------
    1 Stretch                  1     2                       0.96099    0.00000
    2 Stretch                  1     3                       0.96099    0.00000
    3 Bend                     2     1     3               103.93126    0.00000
 

      ----------------------
      Optimization converged
      ----------------------


  Step       Energy      Delta E   Gmax     Grms     Xrms     Xmax   Walltime
  ---- ---------------- -------- -------- -------- -------- -------- --------
@    1     -76.33698022 -1.1D-10  0.00000  0.00000  0.00001  0.00001      1.4
                                     ok       ok       ok       ok  



                                Z-matrix (autoz)
                                -------- 

 Units are Angstrom for bonds and degrees for angles
 
      Type          Name      I     J     K     L     M      Value     Gradient
      ----------- --------  ----- ----- ----- ----- ----- ---------- ----------
    1 Stretch                  1     2                       0.96099    0.00000
    2 Stretch                  1     3                       0.96099    0.00000
    3 Bend                     2     1     3               103.93126    0.00000
 
 
 
                         Geometry "geometry" -> "geometry"
                         ---------------------------------
 
 Output coordinates in angstroms (scale by  1.889725989 to convert to a.u.)
 
  No.       Tag          Charge          X              Y              Z
 ---- ---------------- ---------- -------------- -------------- --------------
    1 O                    8.0000     0.00000000     0.00000266     0.20279825
    2 H                    1.0000     0.00000000    -0.75691401     0.79488896
    3 H                    1.0000     0.00000000     0.75691053     0.79489987
 
      Atomic Mass 
      ----------- 
 
      O                 15.994910
      H                  1.007825
 

 Effective nuclear repulsion energy (a.u.)       9.1601349306

            Nuclear Dipole moment (a.u.) 
            ----------------------------
        X                 Y               Z
 ---------------- ---------------- ----------------
     0.0000000000     0.0000335888     6.0701302073
 
 
                Final and change from initial internal coordinates
                --------------------------------------------------
 


                                Z-matrix (autoz)
                                -------- 

 Units are Angstrom for bonds and degrees for angles
 
      Type          Name      I     J     K     L     M      Value       Change
      ----------- --------  ----- ----- ----- ----- ----- ---------- ----------
    1 Stretch                  1     2                       0.96099    0.00001
    2 Stretch                  1     3                       0.96099    0.00001
    3 Bend                     2     1     3               103.93126   -0.00002
 
 ==============================================================================
                                internuclear distances
 ------------------------------------------------------------------------------
       center one      |      center two      | atomic units |  angstroms
 ------------------------------------------------------------------------------
    2 H                |   1 O                |     1.81600  |     0.96099
    3 H                |   1 O                |     1.81600  |     0.96099
 ------------------------------------------------------------------------------
                         number of included internuclear distances:          2
 ==============================================================================



 ==============================================================================
                                 internuclear angles
 ------------------------------------------------------------------------------
        center 1       |       center 2       |       center 3       |  degrees
 ------------------------------------------------------------------------------
    2 H                |   1 O                |   3 H                |   103.93
 ------------------------------------------------------------------------------
                            number of included internuclear angles:          1
 ==============================================================================




 Task  times  cpu:        0.3s     wall:        1.2s
 
 
                                NWChem Input Module
                                -------------------
 
 
 
 
                   NWChem Nuclear Hessian and Frequency Analysis
                   ---------------------------------------------
 
 
 
                              NWChem Analytic Hessian
                              -----------------------
 
 restr:                      0
 
                                 NWChem DFT Module
                                 -----------------
 
 
                              PBE0/6-31G** frequency
 
 


 Summary of "ao basis" -> "ao basis" (cartesian)
 ------------------------------------------------------------------------------
       Tag                 Description            Shells   Functions and Types
 ---------------- ------------------------------  ------  ---------------------
 O                          6-31G**                  6       15   3s2p1d
 H                          6-31G**                  3        5   2s1p


  Caching 1-el integrals 
 
            General Information
            -------------------
          SCF calculation type: DFT
          Wavefunction type:  closed shell.
          No. of atoms     :     3
          No. of electrons :    10
           Alpha electrons :     5
            Beta electrons :     5
          Charge           :     0
          Spin multiplicity:     1
          Use of symmetry is: off; symmetry adaption is: off
          Maximum number of iterations:  30
          AO basis - number of functions:    25
                     number of shells:    12
          Convergence on energy requested:  1.00D-07
          Convergence on density requested:  1.00D-05
          Convergence on gradient requested:  1.00D-06
 
              XC Information
              --------------
                         PBE0 Method XC Functional
                     Hartree-Fock (Exact) Exchange  0.250          
          PerdewBurkeErnzerhof Exchange Functional  0.750          
            Perdew 1991 LDA Correlation Functional  1.000 local    
           PerdewBurkeErnz. Correlation Functional  1.000 non-local
 
             Grid Information
             ----------------
          Grid used for XC integration:  fine      
          Radial quadrature: Mura-Knowles        
          Angular quadrature: Lebedev. 
          Tag              B.-S. Rad. Rad. Pts. Rad. Cut. Ang. Pts.
          ---              ---------- --------- --------- ---------
          O                   0.60       70           6.0       590
          H                   0.35       60           8.0       590
          Grid pruning is: on 
          Number of quadrature shells:   190
          Spatial weights used:  Erf1
 
          Convergence Information
          -----------------------
          Convergence aids based upon iterative change in 
          total energy or number of iterations. 
          Levelshifting, if invoked, occurs when the 
          HOMO/LUMO gap drops below (HL_TOL):  1.00D-02
          DIIS, if invoked, will attempt to extrapolate 
          using up to (NFOCK): 10 stored Fock matrices.

                    Damping( 0%)  Levelshifting(0.5)       DIIS
                  --------------- ------------------- ---------------
          dE  on:    start            ASAP                start   
          dE off:    2 iters         30 iters            30 iters 

 
      Screening Tolerance Information
      -------------------------------
          Density screening/tol_rho:  1.00D-11
          AO Gaussian exp screening on grid/accAOfunc:  16
          CD Gaussian exp screening on grid/accCDfunc:  20
          XC Gaussian exp screening on grid/accXCfunc:  20
          Schwarz screening/accCoul:  1.00D-12


 Loading old vectors from job with title :

PBE0/6-31G** frequency

   Time after variat. SCF:      1.5
   Time prior to 1st pass:      1.5

 Grid_pts file          = ./sq.gridpts.00
 Record size in doubles =  12289        No. of grid_pts per rec  =   3070
 Max. records in memory =      4        Max. recs in file   =  53328984

 Grid integrated density:      10.000000271886
 Requested integration accuracy:   0.10E-13

           Memory utilization after 1st SCF pass: 
           Heap Space remaining (MW):        6.76             6764898
          Stack Space remaining (MW):       13.11            13106924

   convergence    iter        energy       DeltaE   RMS-Dens  Diis-err    time
 ---------------- ----- ----------------- --------- --------- ---------  ------
 d= 0,ls=0.0,diis     1    -76.3369797485 -8.55D+01  1.98D-07  2.99D-11     1.5
 Grid integrated density:      10.000000271887
 Requested integration accuracy:   0.10E-13
 d= 0,ls=0.0,diis     2    -76.3369797485  8.38D-13  1.17D-07  4.10D-11     1.5


         Total DFT energy =      -76.336979748527
      One electron energy =     -123.073181207619
           Coulomb energy =       46.846171881399
    Exchange-Corr. energy =       -9.270105352857
 Nuclear repulsion energy =        9.160134930551

 Numeric. integr. density =       10.000000271887

     Total iterative time =      0.1s


 
                       DFT Final Molecular Orbital Analysis
                       ------------------------------------
 
 Vector    1  Occ=2.000000D+00  E=-1.921038D+01
              MO Center= -3.2D-17,  2.7D-06,  2.0D-01, r^2= 1.5D-02
   Bfn.  Coefficient  Atom+Function         Bfn.  Coefficient  Atom+Function  
  ----- ------------  ---------------      ----- ------------  ---------------
     1      0.993146  1 O  s                  2      0.025626  1 O  s          
 
 Vector    2  Occ=2.000000D+00  E=-1.024518D+00
              MO Center= -6.1D-15,  1.2D-06,  4.1D-01, r^2= 5.0D-01
   Bfn.  Coefficient  Atom+Function         Bfn.  Coefficient  Atom+Function  
  ----- ------------  ---------------      ----- ------------  ---------------
     2      0.466740  1 O  s                  6      0.419702  1 O  s          
     1     -0.209882  1 O  s                 16      0.151109  2 H  s          
    21      0.151109  3 H  s                  5      0.115473  1 O  pz         
     9      0.042530  1 O  pz         
 
 Vector    3  Occ=2.000000D+00  E=-5.295887D-01
              MO Center= -1.8D-15,  9.4D-07,  4.2D-01, r^2= 7.8D-01
   Bfn.  Coefficient  Atom+Function         Bfn.  Coefficient  Atom+Function  
  ----- ------------  ---------------      ----- ------------  ---------------
     4      0.512245  1 O  py                 8      0.254746  1 O  py         
    16     -0.244579  2 H  s                 21      0.244579  3 H  s          
    17     -0.147489  2 H  s                 22      0.147489  3 H  s          
    14      0.050224  1 O  dyz        
 
 Vector    4  Occ=2.000000D+00  E=-3.846076D-01
              MO Center= -1.2D-14,  3.2D-06,  1.3D-01, r^2= 6.9D-01
   Bfn.  Coefficient  Atom+Function         Bfn.  Coefficient  Atom+Function  
  ----- ------------  ---------------      ----- ------------  ---------------
     5      0.551936  1 O  pz                 6     -0.395093  1 O  s          
     9      0.370782  1 O  pz                 2     -0.176051  1 O  s          
    16      0.144058  2 H  s                 21      0.144058  3 H  s          
    17      0.108220  2 H  s                 22      0.108220  3 H  s          
     1      0.085376  1 O  s                 15      0.043518  1 O  dzz        
 
 Vector    5  Occ=2.000000D+00  E=-3.051470D-01
              MO Center=  9.4D-15,  2.5D-06,  2.3D-01, r^2= 6.0D-01
   Bfn.  Coefficient  Atom+Function         Bfn.  Coefficient  Atom+Function  
  ----- ------------  ---------------      ----- ------------  ---------------
     3      0.640439  1 O  px                 7      0.497812  1 O  px         
    12      0.051232  1 O  dxz        
 
 Vector    6  Occ=0.000000D+00  E= 8.471269D-02
              MO Center=  5.8D-15, -3.5D-06,  9.5D-01, r^2= 2.4D+00
   Bfn.  Coefficient  Atom+Function         Bfn.  Coefficient  Atom+Function  
  ----- ------------  ---------------      ----- ------------  ---------------
     6      1.270114  1 O  s                 17     -0.974199  2 H  s          
    22     -0.974199  3 H  s                  9      0.469913  1 O  pz         
     5      0.268485  1 O  pz                 2      0.117096  1 O  s          
     1     -0.101125  1 O  s                 16     -0.090101  2 H  s          
    21     -0.090101  3 H  s                 10     -0.056261  1 O  dxx        
 
 Vector    7  Occ=0.000000D+00  E= 1.706266D-01
              MO Center= -2.8D-16, -1.6D-06,  9.0D-01, r^2= 2.5D+00
   Bfn.  Coefficient  Atom+Function         Bfn.  Coefficient  Atom+Function  
  ----- ------------  ---------------      ----- ------------  ---------------
    17      1.297922  2 H  s                 22     -1.297923  3 H  s          
     8      0.765845  1 O  py                 4      0.402598  1 O  py         
    16      0.103733  2 H  s                 21     -0.103733  3 H  s          
    14      0.028010  1 O  dyz        
 
 Vector    8  Occ=0.000000D+00  E= 7.787495D-01
              MO Center= -2.4D-16, -1.8D-06,  5.7D-01, r^2= 1.7D+00
   Bfn.  Coefficient  Atom+Function         Bfn.  Coefficient  Atom+Function  
  ----- ------------  ---------------      ----- ------------  ---------------
    17     -0.783342  2 H  s                 22      0.783340  3 H  s          
    16      0.765668  2 H  s                 21     -0.765667  3 H  s          
    14     -0.471857  1 O  dyz                4      0.192562  1 O  py         
     8      0.183133  1 O  py                20      0.101902  2 H  pz         
    25     -0.101902  3 H  pz                19     -0.050391  2 H  py         
 
 Vector    9  Occ=0.000000D+00  E= 8.314565D-01
              MO Center= -3.0D-15,  1.9D-06,  5.0D-01, r^2= 1.5D+00
   Bfn.  Coefficient  Atom+Function         Bfn.  Coefficient  Atom+Function  
  ----- ------------  ---------------      ----- ------------  ---------------
     5      0.636334  1 O  pz                17      0.596919  2 H  s          
    22      0.596921  3 H  s                 16     -0.568461  2 H  s          
    21     -0.568463  3 H  s                  9     -0.541551  1 O  pz         
    13     -0.273553  1 O  dyy                6     -0.228321  1 O  s          
    19      0.169932  2 H  py                24     -0.169931  3 H  py         
 
 Vector   10  Occ=0.000000D+00  E= 9.150751D-01
              MO Center= -2.5D-13,  3.5D-06,  5.4D-02, r^2= 1.4D+00
   Bfn.  Coefficient  Atom+Function         Bfn.  Coefficient  Atom+Function  
  ----- ------------  ---------------      ----- ------------  ---------------
     6      1.355957  1 O  s                  2     -0.816485  1 O  s          
     9     -0.811550  1 O  pz                 5      0.538212  1 O  pz         
    16      0.493971  2 H  s                 21      0.493971  3 H  s          
    17     -0.375870  2 H  s                 22     -0.375869  3 H  s          
    10     -0.325600  1 O  dxx               15     -0.278054  1 O  dzz        
 
 Vector   11  Occ=0.000000D+00  E= 9.183614D-01
              MO Center=  2.4D-13,  2.6D-06,  2.1D-01, r^2= 1.1D+00
   Bfn.  Coefficient  Atom+Function         Bfn.  Coefficient  Atom+Function  
  ----- ------------  ---------------      ----- ------------  ---------------
     7     -1.035893  1 O  px                 3      0.961953  1 O  px         
    12     -0.029329  1 O  dxz        
 
 Vector   12  Occ=0.000000D+00  E= 1.041550D+00
              MO Center=  3.3D-16,  2.9D-06,  2.1D-01, r^2= 1.6D+00
   Bfn.  Coefficient  Atom+Function         Bfn.  Coefficient  Atom+Function  
  ----- ------------  ---------------      ----- ------------  ---------------
     8      1.799113  1 O  py                17      0.976760  2 H  s          
    22     -0.976761  3 H  s                  4     -0.865228  1 O  py         
    14      0.170814  1 O  dyz               16      0.149350  2 H  s          
    19      0.149013  2 H  py                21     -0.149350  3 H  s          
    24      0.149012  3 H  py                20     -0.093613  2 H  pz         
 
 Vector   13  Occ=0.000000D+00  E= 1.192045D+00
              MO Center=  1.1D-14, -8.6D-07,  7.0D-01, r^2= 1.4D+00
   Bfn.  Coefficient  Atom+Function         Bfn.  Coefficient  Atom+Function  
  ----- ------------  ---------------      ----- ------------  ---------------
[...]
           0.000000000000          -0.000013077766           4.123859712559
 
     Multipole analysis of the density
     ---------------------------------
 
     L   x y z        total         alpha         beta         nuclear
     -   - - -        -----         -----         ----         -------
     0   0 0 0     -0.000000     -5.000000     -5.000000     10.000000
 
     1   1 0 0      0.000000      0.000000      0.000000      0.000000
     1   0 1 0     -0.000006     -0.000020     -0.000020      0.000034
     1   0 0 1      0.815194     -2.627468     -2.627468      6.070130
 
     2   2 0 0     -5.309002     -2.654501     -2.654501      0.000000
     2   1 1 0      0.000000      0.000000      0.000000      0.000000
     2   1 0 1      0.000000      0.000000      0.000000      0.000000
     2   0 2 0     -3.152762     -3.622302     -3.622302      4.091841
     2   0 1 1      0.000008     -0.000013     -0.000013      0.000035
     2   0 0 2     -3.439609     -4.563678     -4.563678      5.687746
 

 HESSIAN: the one electron contributions are done in       0.0s


 HESSIAN: 2-el 1st deriv. term done in                     0.0s


 HESSIAN: 2-el 2nd deriv. term done in                     0.0s

  stpr_wrt_fd_from_sq: overwrite of existing file:./sq.hess
 stpr_wrt_fd_dipole: overwrite of existing file./sq.fd_ddipole

 HESSIAN: the two electron contributions are done in       0.1s

                                NWChem CPHF Module
                                ------------------
 
 
  scftype          =     RHF 
  nclosed          =        5
  nopen            =        0
  variables        =      100
  # of vectors     =        9
  tolerance        = 0.10D-03
  level shift      = 0.00D+00
  max iterations   =       50
  max subspace     =       90

 Grid integrated density:      10.000000271886
 Requested integration accuracy:   0.10E-13
 SCF residual:   5.238750707097698E-007


Iterative solution of linear equations
  No. of variables      100
  No. of equations        9
  Maximum subspace       90
        Iterations       50
       Convergence  1.0D-04
        Start time      1.9


   iter   nsub   residual    time
   ----  ------  --------  ---------
     1      9    3.44D-01       2.0
     2     18    1.91D-01       2.0
     3     27    2.47D-03       2.5
     4     36    6.53D-05       2.6
 HESSIAN: the CPHF contributions are done
  stpr_wrt_fd_from_sq: overwrite of existing file:./sq.hess
 stpr_wrt_fd_dipole: overwrite of existing file./sq.fd_ddipole

 Derivative Dipole

  
  
 X vector of derivative dipole (au) [debye/angstrom]
 d_dipole_x/<atom=   1,x> =    -0.7286     [   -3.4994]
 d_dipole_x/<atom=   1,y> =     0.0000     [    0.0000]
 d_dipole_x/<atom=   1,z> =    -0.0000     [   -0.0000]
 d_dipole_x/<atom=   2,x> =     0.3643     [    1.7497]
 d_dipole_x/<atom=   2,y> =    -0.0000     [   -0.0000]
 d_dipole_x/<atom=   2,z> =     0.0000     [    0.0000]
 d_dipole_x/<atom=   3,x> =     0.3643     [    1.7497]
 d_dipole_x/<atom=   3,y> =    -0.0000     [   -0.0000]
 d_dipole_x/<atom=   3,z> =    -0.0000     [   -0.0000]
  
 Y vector of derivative dipole (au) [debye/angstrom]
 d_dipole_y/<atom=   1,x> =    -0.0000     [   -0.0000]
 d_dipole_y/<atom=   1,y> =    -0.4462     [   -2.1430]
 d_dipole_y/<atom=   1,z> =    -0.0000     [   -0.0000]
 d_dipole_y/<atom=   2,x> =     0.0000     [    0.0000]
 d_dipole_y/<atom=   2,y> =     0.2231     [    1.0715]
 d_dipole_y/<atom=   2,z> =     0.1105     [    0.5306]
 d_dipole_y/<atom=   3,x> =     0.0000     [    0.0000]
 d_dipole_y/<atom=   3,y> =     0.2231     [    1.0715]
 d_dipole_y/<atom=   3,z> =    -0.1105     [   -0.5306]
  
 Z vector of derivative dipole (au) [debye/angstrom]
 d_dipole_z/<atom=   1,x> =     0.0000     [    0.0000]
 d_dipole_z/<atom=   1,y> =    -0.0000     [   -0.0000]
 d_dipole_z/<atom=   1,z> =    -0.3543     [   -1.7017]
 d_dipole_z/<atom=   2,x> =    -0.0000     [   -0.0000]
 d_dipole_z/<atom=   2,y> =     0.0786     [    0.3777]
 d_dipole_z/<atom=   2,z> =     0.1771     [    0.8508]
 d_dipole_z/<atom=   3,x> =    -0.0000     [   -0.0000]
 d_dipole_z/<atom=   3,y> =    -0.0786     [   -0.3777]
 d_dipole_z/<atom=   3,z> =     0.1771     [    0.8508]
  
  
 HESSIAN: the Hessian is done
 
 
  Vibrational analysis via the FX method 
 
  See chapter 2 in "Molecular Vibrations" by Wilson, Decius and Cross
 
  Vib: Default input used 
 
  Nuclear Hessian passed symmetry test 
 


 ---------------------------- Atom information ----------------------------
     atom    #        X              Y              Z            mass
 --------------------------------------------------------------------------
    O        1  0.0000000D+00  5.0197682D-06  3.8323312D-01  1.5994910D+01
    H        2  0.0000000D+00 -1.4303601D+00  1.5021223D+00  1.0078250D+00
    H        3  0.0000000D+00  1.4303535D+00  1.5021429D+00  1.0078250D+00
 --------------------------------------------------------------------------




          ----------------------------------------------------
          MASS-WEIGHTED NUCLEAR HESSIAN (Hartree/Bohr/Bohr/Kamu)
          ----------------------------------------------------


               1            2            3            4            5            6            7            8            9
   ----- ----- ----- ----- -----
    1    1.30780D-04
    2    1.31103D-08  4.37221D+01
    3   -1.02488D-09  1.31061D-04  2.94936D+01
    4   -8.32105D-05 -1.07640D-07 -1.98780D-10  2.09993D-03
    5   -2.84607D-08 -8.70927D+01  5.18737D+01  5.66867D-08  3.78258D+02
    6    1.42444D-08  6.81273D+01 -5.87486D+01 -2.83719D-08 -2.39030D+02  2.23176D+02
    7   -5.35960D-05 -1.07654D-07 -1.99832D-10 -1.72073D-03  2.01050D-07 -1.25461D-07  1.98194D-03
    8   -2.36801D-08 -8.70911D+01 -5.18742D+01  4.71595D-08 -3.12972D+01 -3.23757D+01  4.71773D-08  3.78251D+02
    9   -1.00738D-08 -6.81278D+01 -5.87504D+01  2.00606D-08  3.23749D+01  1.08673D+01  2.00734D-08  2.39033D+02  2.23183D+02



          -------------------------------------------------
          NORMAL MODE EIGENVECTORS IN CARTESIAN COORDINATES
          -------------------------------------------------
                 (Frequencies expressed in cm-1)

                    1           2           3           4           5           6
 
 Frequency         -4.42       -3.52        1.54        3.08        8.32        9.97
 
           1     0.00000     0.00000    -0.23048     0.09695     0.00000    -0.00156
           2     0.23737    -0.00763     0.00001     0.00002     0.03980    -0.00000
           3     0.00738     0.23551     0.00000     0.00000     0.00119     0.00000
           4     0.00006     0.00001    -0.27244    -0.63619    -0.00002     0.71643
           5     0.21902    -0.00482     0.00001     0.00002    -0.40331    -0.00000
           6    -0.01608     0.23911     0.00000     0.00002    -0.56527     0.00000
           7     0.00006     0.00002    -0.27381    -0.66207    -0.00001    -0.69205
           8     0.21902    -0.00482     0.00001     0.00002    -0.40332    -0.00000
           9     0.03083     0.23192     0.00000    -0.00001     0.56764     0.00000

                    7           8           9
 
 Frequency       1669.05     3873.04     3991.71
 
           1     0.00000     0.00000    -0.00000
           2     0.00000     0.00000    -0.06733
           3    -0.06785    -0.04892    -0.00000
           4    -0.00000    -0.00000     0.00000
           5     0.41195    -0.57134     0.53428
           6     0.53841     0.38822    -0.41794
           7     0.00000    -0.00000     0.00000
           8    -0.41196     0.57132     0.53429
           9     0.53840     0.38822     0.41796



 ----------------------------------------------------------------------------
 Normal Eigenvalue ||         Derivative Dipole Moments (debye/angs)
  Mode   [cm**-1]  ||      [d/dqX]             [d/dqY]           [d/dqZ]
 ------ ---------- || ------------------ ------------------ -----------------
    1       -4.422 ||       0.000              -0.064            -0.000
    2       -3.522 ||       0.000               0.010            -0.000
    3        1.543 ||      -0.149               0.000             0.000
    4        3.083 ||      -2.611               0.000             0.000
    5        8.317 ||      -0.000              -1.551            -0.000
    6        9.972 ||       0.048              -0.000            -0.000
    7     1669.050 ||       0.000              -0.000             1.343
    8     3873.043 ||      -0.000              -0.000             0.312
    9     3991.711 ||      -0.000               0.846             0.000
 ----------------------------------------------------------------------------



  
  
 ----------------------------------------------------------------------------
 Normal Eigenvalue ||                 Infra Red Intensities
  Mode   [cm**-1]  || [atomic units] [(debye/angs)**2] [(KM/mol)] [arbitrary]
 ------ ---------- || -------------- ----------------- ---------- -----------
    1       -4.422 ||    0.000179           0.004         0.174       0.031
    2       -3.522 ||    0.000004           0.000         0.004       0.001
    3        1.543 ||    0.000966           0.022         0.941       0.169
    4        3.083 ||    0.295453           6.816       288.022      51.701
    5        8.317 ||    0.104228           2.405       101.606      18.239
    6        9.972 ||    0.000100           0.002         0.098       0.018
    7     1669.050 ||    0.078160           1.803        76.194      13.677
    8     3873.043 ||    0.004227           0.098         4.121       0.740
    9     3991.711 ||    0.031003           0.715        30.223       5.425
 ----------------------------------------------------------------------------



 
 
        Vibrational analysis via the FX method 
  --- with translations and rotations projected out ---
  --- via the Eckart algorithm                      ---
 Projected Nuclear Hessian trans-rot subspace norm:6.9333D-33
                         (should be close to zero!) 

          --------------------------------------------------------
          MASS-WEIGHTED PROJECTED HESSIAN (Hartree/Bohr/Bohr/Kamu)
          --------------------------------------------------------


               1            2            3            4            5            6            7            8            9
   ----- ----- ----- ----- -----
    1    0.00000D+00
    2    0.00000D+00  4.37227D+01
    3    2.02013D-25  1.28514D-04  2.94939D+01
    4    0.00000D+00 -1.93147D-23  2.01195D-24  0.00000D+00
    5    0.00000D+00 -8.70921D+01  5.18738D+01  8.97704D-23  3.78257D+02
    6   -6.43824D-24  6.81271D+01 -5.87481D+01 -4.16791D-23 -2.39030D+02  2.23173D+02
    7    0.00000D+00 -1.93147D-23  1.60956D-24 -2.10114D-19  3.20609D-23 -3.20609D-23  0.00000D+00
    8    6.43824D-24 -8.70905D+01 -5.18743D+01  4.48852D-23 -3.12983D+01 -3.23754D+01  2.56487D-23  3.78250D+02
    9    0.00000D+00 -6.81276D+01 -5.87499D+01  3.84730D-23  3.23748D+01  1.08683D+01  3.20609D-23  2.39033D+02  2.23180D+02

 center of mass
 --------------
 x =   0.00000000 y =   0.00000409 z =   0.50845464

 moments of inertia (a.u.)
 ------------------
           6.364911451550           0.000000000000           0.000000000000
           0.000000000000           2.241051738991          -0.000013077766
           0.000000000000          -0.000013077766           4.123859712559

 Rotational Constants
 --------------------
 A=  26.862466 cm-1  ( 38.648233 K)
 B=  14.598017 cm-1  ( 21.002821 K)
 C=   9.458132 cm-1  ( 13.607839 K)


 Temperature                      =   298.15K
 frequency scaling parameter      =   1.0000

 Zero-Point correction to Energy  =   13.623 kcal/mol  (  0.021709 au)
 Thermal correction to Energy     =   15.401 kcal/mol  (  0.024543 au)
 Thermal correction to Enthalpy   =   15.993 kcal/mol  (  0.025487 au)

 Total Entropy                    =   46.445 cal/mol-K
   - Translational                =   34.593 cal/mol-K (mol. weight =  18.0106)
   - Rotational                   =   11.846 cal/mol-K (symmetry #  =        1)
   - Vibrational                  =    0.006 cal/mol-K

 Cv (constant volume heat capacity) =    6.000 cal/mol-K
   - Translational                  =    2.979 cal/mol-K
   - Rotational                     =    2.979 cal/mol-K
   - Vibrational                    =    0.041 cal/mol-K



          -------------------------------------------------
          NORMAL MODE EIGENVECTORS IN CARTESIAN COORDINATES
          -------------------------------------------------
             (Projected Frequencies expressed in cm-1)

                    1           2           3           4           5           6
 
 P.Frequency       -0.00       -0.00        0.00        0.00        0.00        0.00
 
           1     0.00000     0.00000     0.25004     0.00000     0.00000     0.00000
           2     0.04573     0.23576     0.00000     0.00000     0.00000    -0.01770
           3     0.08505     0.00000     0.00000     0.00000     0.00000     0.21975
           4     0.00000     0.00000     0.00000     0.99611     0.00000     0.00000
           5    -0.36787     0.23463     0.00000     0.00000     0.00000     0.14237
           6    -0.44369    -0.00144     0.00000     0.00000     0.00000     0.42438
           7     0.00000     0.00000     0.00000     0.00000     0.99611     0.00000
           8    -0.36788     0.23463     0.00000     0.00000     0.00000     0.14237
           9     0.61378     0.00144     0.00000     0.00000     0.00000     0.01512

                    7           8           9
 
 P.Frequency     1669.04     3873.04     3991.70
 
           1     0.00000     0.00000     0.00000
           2     0.00000     0.00000    -0.06733
           3    -0.06785    -0.04892    -0.00000
           4     0.00000     0.00000     0.00000
           5     0.41195    -0.57134     0.53428
           6     0.53841     0.38822    -0.41794
           7     0.00000     0.00000     0.00000
           8    -0.41195     0.57132     0.53429
           9     0.53841     0.38821     0.41796



 ----------------------------------------------------------------------------
 Normal Eigenvalue ||    Projected Derivative Dipole Moments (debye/angs)
  Mode   [cm**-1]  ||      [d/dqX]             [d/dqY]           [d/dqZ]
 ------ ---------- || ------------------ ------------------ -----------------
    1       -0.000 ||       0.000              -1.447            -0.000
    2       -0.000 ||       0.000              -0.004            -0.000
    3        0.000 ||      -0.875              -0.000             0.000
    4        0.000 ||       1.743               0.000            -0.000
    5        0.000 ||       1.743               0.000            -0.000
    6        0.000 ||      -0.000               0.560             0.000
    7     1669.041 ||      -0.000              -0.000             1.343
    8     3873.040 ||       0.000              -0.000             0.312
    9     3991.699 ||      -0.000               0.846             0.000
 ----------------------------------------------------------------------------



  
  
 ----------------------------------------------------------------------------
 Normal Eigenvalue ||           Projected Infra Red Intensities
  Mode   [cm**-1]  || [atomic units] [(debye/angs)**2] [(KM/mol)] [arbitrary]
 ------ ---------- || -------------- ----------------- ---------- -----------
    1       -0.000 ||    0.090808           2.095        88.524      15.890
    2       -0.000 ||    0.000001           0.000         0.001       0.000
    3        0.000 ||    0.033185           0.766        32.350       5.807
    4        0.000 ||    0.131667           3.038       128.356      23.040
    5        0.000 ||    0.131667           3.038       128.356      23.040
    6        0.000 ||    0.013601           0.314        13.259       2.380
    7     1669.041 ||    0.078160           1.803        76.194      13.677
    8     3873.040 ||    0.004227           0.098         4.121       0.740
    9     3991.699 ||    0.031003           0.715        30.224       5.425
 ----------------------------------------------------------------------------



 vib:animation  F

 Task  times  cpu:        0.6s     wall:        1.7s
 
 
                                NWChem Input Module
                                -------------------
 
 
 Summary of allocated global arrays
-----------------------------------
  No active global arrays



                         GA Statistics for process    0
                         ------------------------------

       create   destroy   get      put      acc     scatter   gather  read&inc
calls:  717      717     5808     1665     3598      191        0      224     
number of processes/call 3.28e+00 6.77e+00 2.89e+00 0.00e+00 0.00e+00
bytes total:             5.53e+06 9.14e+05 3.25e+06 4.80e+01 0.00e+00 1.79e+03
bytes remote:            2.48e+06 3.33e+05 1.41e+06 -2.72e+02 0.00e+00 0.00e+00
Max memory consumed for GA by this process: 129568 bytes
 
MA_summarize_allocated_blocks: starting scan ...
heap block 'gridpts', handle 14, address 0xf5a9098:
	type of elements:		double precision
	number of elements:		6291456
	address of client space:	0xf5a9100
	index for client space:		7388617
	total number of bytes:		50331760
MA_summarize_allocated_blocks: scan completed: 1 heap block, 0 stack blocks
MA usage statistics:

	allocation statistics:
					      heap	     stack
					      ----	     -----
	current number of blocks	         1	         0
	maximum number of blocks	        25	        52
	current total bytes		  50331760	         0
	maximum total bytes		  50738424	  68048024
	maximum total K-bytes		     50739	     68049
	maximum total M-bytes		        51	        69
 
 
                                     CITATION
                                     --------
                Please cite the following reference when publishing
                           results obtained with NWChem:
 
                 M. Valiev, E.J. Bylaska, N. Govind, K. Kowalski,
              T.P. Straatsma, H.J.J. van Dam, D. Wang, J. Nieplocha,
                        E. Apra, T.L. Windus, W.A. de Jong
                 "NWChem: a comprehensive and scalable open-source
                  solution for large scale molecular simulations"
                      Comput. Phys. Commun. 181, 1477 (2010)
                           doi:10.1016/j.cpc.2010.04.018
 
                                      AUTHORS
                                      -------
          E. Apra, E. J. Bylaska, W. A. de Jong, N. Govind, K. Kowalski,
       T. P. Straatsma, M. Valiev, H. J. J. van Dam, D. Wang, T. L. Windus,
        J. Hammond, J. Autschbach, K. Bhaskaran-Nair, J. Brabec, K. Lopata,
    S. A. Fischer, S. Krishnamoorthy, M. Jacquelin, W. Ma, M. Klemm, O. Villa,
      Y. Chen, V. Anisimov, F. Aquino, S. Hirata, M. T. Hackler, V. Konjkov,
            D. Mejia-Rodriguez, T. Risthaus, M. Malagoli, A. Marenich,
   A. Otero-de-la-Roza, J. Mullin, P. Nichols, R. Peverati, J. Pittner, Y. Zhao,
        P.-D. Fan, A. Fonari, M. J. Williamson, R. J. Harrison, J. R. Rehr,
      M. Dupuis, D. Silverstein, D. M. A. Smith, J. Nieplocha, V. Tipparaju,
    M. Krishnan, B. E. Van Kuiken, A. Vazquez-Mayagoitia, L. Jensen, M. Swart,
      Q. Wu, T. Van Voorhis, A. A. Auer, M. Nooijen, L. D. Crosby, E. Brown,
      G. Cisneros, G. I. Fann, H. Fruchtl, J. Garza, K. Hirao, R. A. Kendall,
      J. A. Nichols, K. Tsemekhman, K. Wolinski, J. Anchell, D. E. Bernholdt,
      P. Borowski, T. Clark, D. Clerc, H. Dachsel, M. J. O. Deegan, K. Dyall,
    D. Elwood, E. Glendening, M. Gutowski, A. C. Hess, J. Jaffe, B. G. Johnson,
     J. Ju, R. Kobayashi, R. Kutteh, Z. Lin, R. Littlefield, X. Long, B. Meng,
      T. Nakajima, S. Niu, L. Pollack, M. Rosing, K. Glaesemann, G. Sandrone,
      M. Stave, H. Taylor, G. Thomas, J. H. van Lenthe, A. T. Wong, Z. Zhang.

 Total times  cpu:        0.9s     wall:        3.6s
