                  Welcome to Q-Chem
     A Quantum Leap Into The Future Of Chemistry


 Q-Chem 5.4 (devel), Q-Chem, Inc., Pleasanton, CA (2021)

 E. Epifanovsky,  A. T. B. Gilbert,  Xintian Feng,  Joonho Lee,  Yuezhi Mao,  
 N. Mardirossian,  P. Pokhilko,  A. White,  M. Wormit,  M. P. Coons,  
 A. L. Dempwolff,  Zhengting Gan,  D. Hait,  P. R. Horn,  L. D. Jacobson,  
 I. Kaliman,  J. Kussmann,  A. W. Lange,  Ka Un Lao,  D. S. Levine,  Jie Liu,  
 S. C. McKenzie,  A. F. Morrison,  K. Nanda,  F. Plasser,  D. R. Rehn,  
 M. L. Vidal,  Zhi-Qiang You,  Ying Zhu,  B. Alam,  B. Albrecht,  
 A. Aldossary,  E. Alguire,  J. H. Andersen,  D. Barton,  K. Begam,  A. Behn,  
 Y. A. Bernard,  E. J. Berquist,  H. Burton,  A. Carreras,  K. Carter-Fenk,  
 R. Chakraborty,  A. D. Chien,  K. D. Closser,  V. Cofer-Shabica,  
 S. Dasgupta,  Jia Deng,  M. de Wergifosse,  M. Diedenhofen,  Hainam Do,  
 S. Ehlert,  Po-Tung Fang,  S. Fatehi,  Qingguo Feng,  T. Friedhoff,  
 J. Gayvert,  Qinghui Ge,  G. Gidofalvi,  M. Goldey,  J. Gomes,  
 C. Gonzalez-Espinoza,  S. Gulania,  A. Gunina,  M. W. D. Hanson-Heine,  
 P. H. P. Harbach,  A. W. Hauser,  M. F. Herbst,  M. Hernandez Vera,  
 M. Hodecker,  Z. C. Holden,  S. Houck,  Xunkun Huang,  Kerwin Hui,  
 B. C. Huynh,  M. Ivanov,  Hyunjun Ji,  Hanjie Jiang,  B. Kaduk,  S. Kaehler,  
 K. Khistyaev,  Jaehoon Kim,  P. Klunzinger,  Z. Koczor-Benda,  
 Joong Hoon Koh,  D. Kosenkov,  L. Koulias,  T. Kowalczyk,  C. M. Krauter,  
 K. Kue,  A. Kunitsa,  T. Kus,  A. Landau,  K. V. Lawler,  D. Lefrancois,  
 S. Lehtola,  Rain Li,  Yi-Pei Li,  Jiashu Liang,  M. Liebenthal,  
 Hung-Hsuan Lin,  You-Sheng Lin,  Fenglai Liu,  Kuan-Yu Liu,  
 M. Loipersberger,  A. Luenser,  A. Manjanath,  P. Manohar,  E. Mansoor,  
 S. F. Manzer,  Shan-Ping Mao,  A. V. Marenich,  T. Markovich,  S. Mason,  
 S. A. Maurer,  P. F. McLaughlin,  M. F. S. J. Menger,  J.-M. Mewes,  
 S. A. Mewes,  P. Morgante,  J. W. Mullinax,  K. J. Oosterbaan,  G. Paran,  
 Alexander C. Paul,  Suranjan K. Paul,  F. Pavosevic,  Zheng Pei,  S. Prager,  
 E. I. Proynov,  E. Ramos,  B. Rana,  A. E. Rask,  A. Rettig,  R. M. Richard,  
 F. Rob,  E. Rossomme,  T. Scheele,  M. Scheurer,  M. Schneider,  
 N. Sergueev,  S. M. Sharada,  W. Skomorowski,  D. W. Small,  C. J. Stein,  
 Yu-Chuan Su,  E. J. Sundstrom,  Zhen Tao,  J. Thirman,  T. Tsuchimochi,  
 N. M. Tubman,  S. P. Veccham,  O. Vydrov,  J. Wenzel,  J. Witte,  A. Yamada,  
 Kun Yao,  S. Yeganeh,  S. R. Yost,  A. Zech,  Igor Ying Zhang,  Xing Zhang,  
 Yu Zhang,  D. Zuev,  A. Aspuru-Guzik,  A. T. Bell,  N. A. Besley,  
 K. B. Bravaya,  B. R. Brooks,  D. Casanova,  Jeng-Da Chai,  S. Coriani,  
 C. J. Cramer,  A. E. DePrince, III,  R. A. DiStasio Jr.,  A. Dreuw,  
 B. D. Dunietz,  T. R. Furlani,  W. A. Goddard III,  S. Grimme,  
 S. Hammes-Schiffer,  T. Head-Gordon,  W. J. Hehre,  Chao-Ping Hsu,  
 T.-C. Jagau,  Yousung Jung,  A. Klamt,  Jing Kong,  D. S. Lambrecht,  
 WanZhen Liang,  N. J. Mayhall,  C. W. McCurdy,  J. B. Neaton,  
 C. Ochsenfeld,  J. A. Parkhill,  R. Peverati,  V. A. Rassolov,  Yihan Shao,  
 L. V. Slipchenko,  T. Stauch,  R. P. Steele,  J. E. Subotnik,  
 A. J. W. Thom,  A. Tkatchenko,  D. G. Truhlar,  T. Van Voorhis,  
 T. A. Wesolowski,  K. B. Whaley,  H. L. Woodcock III,  P. M. Zimmerman,  
 S. Faraji,  P. M. W. Gill,  M. Head-Gordon,  J. M. Herbert,  A. I. Krylov

 Additional authors for Version 5.4.1: 
 S. Kotaru,  Shaozhi Li,  Xiangyuan Li,  F. Matz,  A. Molle,  Haisheng Ren,  
 Yingli Su,  Hung-Yi Tsai,  C. Utku,  Fang Wang

 Contributors to earlier versions of Q-Chem not listed above: 
 R. D. Adamson,  B. Austin,  R. Baer,  J. Baker,  G. J. O. Beran,  
 K. Brandhorst,  S. T. Brown,  E. F. C. Byrd,  A. K. Chakraborty,  
 G. K. L. Chan,  Chun-Min Chang,  Yunqing Chen,  C.-L. Cheng,  
 Siu Hung Chien,  D. M. Chipman,  D. L. Crittenden,  H. Dachsel,  
 R. J. Doerksen,  A. D. Dutoi,  R. G. Edgar,  J. Fosso-Tande,  
 L. Fusti-Molnar,  D. Ghosh,  A. Ghysels,  A. Golubeva-Zadorozhnaya,  
 J. Gonthier,  M. S. Gordon,  S. R. Gwaltney,  G. Hawkins,  J. E. Herr,  
 A. Heyden,  S. Hirata,  E. G. Hohenstein,  G. Kedziora,  F. J. Keil,  
 C. Kelley,  Jihan Kim,  R. A. King,  R. Z. Khaliullin,  P. P. Korambath,  
 W. Kurlancheek,  A. Laurent,  A. M. Lee,  M. S. Lee,  S. V. Levchenko,  
 Ching Yeh Lin,  D. Liotard,  E. Livshits,  R. C. Lochan,  I. Lotan,  
 L. A. Martinez-Martinez,  P. E. Maslen,  N. Nair,  D. P. O'Neill,  
 D. Neuhauser,  E. Neuscamman,  C. M. Oana,  R. Olivares-Amaya,  R. Olson,  
 T. M. Perrine,  B. Peters,  P. A. Pieniazek,  A. Prociuk,  Y. M. Rhee,  
 J. Ritchie,  M. A. Rohrdanz,  E. Rosta,  N. J. Russ,  H. F. Schaefer III,  
 M. W. Schmidt,  N. E. Schultz,  S. Sharma,  N. Shenvi,  C. D. Sherrill,  
 A. C. Simmonett,  A. Sodt,  T. Stein,  D. Stuck,  K. S. Thanthiriwatte,  
 V. Vanovschi,  L. Vogt,  Tao Wang,  A. Warshel,  M. A. Watson,  
 C. F. Williams,  Q. Wu,  X. Xu,  Jun Yang,  W. Zhang,  Yan Zhao

 Please cite Q-Chem as follows:
 Y. Shao et al., Mol. Phys. 113, 184-215 (2015)
 DOI: 10.1080/00268976.2014.952696

 Q-Chem 5.4.1 for Intel X86 EM64T Linux

 Parts of Q-Chem use Armadillo 9.900.5 (Nocturnal Misbehaviour).
 http://arma.sourceforge.net/

 Q-Chem begins on Mon Nov 15 11:12:09 2021  

orc3
 Host: 0

     Scratch files written to /scratch/wojcik/qchem4032//
 Processing $rem in /qcsoftware/qchem_latest/config/preferences:
 Processing $rem in /home/users/wojcik/.qchemrc:

 Checking the input file for inconsistencies... 	...done.

--------------------------------------------------------------
User input:
--------------------------------------------------------------
$comment
H2O for the NWChem job specificatoin
$end

$molecule
0 1
O 
H 1 B
H 1 B 2 A

B 0.96099
A 103.93126
$end

$rem
JOBTYPE FREQ
EXCHANGE pbe0
UNRESTRICTED FALSE
BASIS 6-311G**
$end

--------------------------------------------------------------
 ----------------------------------------------------------------
             Standard Nuclear Orientation (Angstroms)
    I     Atom           X                Y                Z
 ----------------------------------------------------------------
    1      O       0.0000000000     0.0000000000     0.1184197357
    2      H      -0.7569154083    -0.0000000000    -0.4736789426
    3      H       0.7569154083    -0.0000000000    -0.4736789426
 ----------------------------------------------------------------
 Molecular Point Group                 C2v   NOp =  4
 Largest Abelian Subgroup              C2v   NOp =  4
 Nuclear Repulsion Energy =           9.16009597 hartrees
 There are        5 alpha and        5 beta electrons
 Requested basis set is 6-311G(d,p)
 There are 13 shells and 30 basis functions

 Total QAlloc Memory Limit   2000 MB
 Mega-Array Size       188 MB
 MEM_STATIC part       192 MB

                       Distance Matrix (Angstroms)
             O (  1)   H (  2)
   H (  2)  0.960990
   H (  3)  0.960990  1.513831

 A cutoff of  1.0D-11 yielded     91 shell pairs
 There are       499 function pairs (       535 Cartesian)
 Smallest overlap matrix eigenvalue = 1.81E-02
 Guess from superposition of atomic densities
 Warning:  Energy on first SCF cycle will be non-variational
 SAD guess density has 10.000000 electrons

 -----------------------------------------------------------------------
  General SCF calculation program by
  Eric Jon Sundstrom, Paul Horn, Yuezhi Mao, Dmitri Zuev, Alec White,
  David Stuck, Shaama M.S., Shane Yost, Joonho Lee, David Small,
  Daniel Levine, Susi Lehtola, Hugh Burton, Evgeny Epifanovsky,
  Bang C. Huynh
 -----------------------------------------------------------------------
 Exchange:     0.2500 Hartree-Fock + 0.7500 PBE
 Correlation:  1.0000 PBE
 Using SG-1 standard quadrature grid
 using 4 threads for integral computing
 -------------------------------------------------------
 OpenMP Integral computing Module                
 Release: version 1.0, May 2013, Q-Chem Inc. Pittsburgh 
 -------------------------------------------------------
 A restricted SCF calculation will be
 performed using DIIS
 SCF converges when DIIS error is below 1.0e-08
 ---------------------------------------
  Cycle       Energy         DIIS error
 ---------------------------------------
    1     -76.3260028144      1.07e-01  
    2     -76.3016185685      2.75e-02  
    3     -76.2780435272      3.34e-02  
    4     -76.3623874879      8.28e-04  
    5     -76.3624327023      1.43e-04  
    6     -76.3624340373      1.19e-05  
    7     -76.3624340496      5.84e-07  
    8     -76.3624340496      3.60e-08  
    9     -76.3624340496      4.50e-09  Convergence criterion met
 ---------------------------------------
 SCF time:   CPU 1.34s  wall 1.00s 
 SCF   energy in the final basis set =      -76.3624340496
 Total energy in the final basis set =      -76.3624340496

 --------------------------------------------------------------
             Orbital Energies (a.u.) and Symmetries
 --------------------------------------------------------------

 Alpha MOs, Restricted
 -- Occupied --                  
-19.180  -1.028  -0.534  -0.389  -0.311
  1 A1    2 A1    1 B1    3 A1    1 B2                                         
 -- Virtual --                   
  0.047   0.122   0.395   0.441   0.782   0.787   0.885   1.085
  4 A1    2 B1    3 B1    5 A1    6 A1    2 B2    4 B1    7 A1                 
  1.254   1.279   1.472   1.674   1.948   2.082   2.310   2.502
  8 A1    1 A2    3 B2    5 B1    6 B1    9 A1   10 A1    7 B1                 
  3.130   3.173   3.339   3.615   3.852   4.816   5.236   5.657
  4 B2    2 A2   11 A1   12 A1    8 B1    5 B2   13 A1    9 B1                 
 49.983
 14 A1                                                                         

 Beta MOs, Restricted
 -- Occupied --                  
-19.180  -1.028  -0.534  -0.389  -0.311
  1 A1    2 A1    1 B1    3 A1    1 B2                                         
 -- Virtual --                   
  0.047   0.122   0.395   0.441   0.782   0.787   0.885   1.085
  4 A1    2 B1    3 B1    5 A1    6 A1    2 B2    4 B1    7 A1                 
  1.254   1.279   1.472   1.674   1.948   2.082   2.310   2.502
  8 A1    1 A2    3 B2    5 B1    6 B1    9 A1   10 A1    7 B1                 
  3.130   3.173   3.339   3.615   3.852   4.816   5.236   5.657
  4 B2    2 A2   11 A1   12 A1    8 B1    5 B2   13 A1    9 B1                 
 49.983
 14 A1                                                                         
 --------------------------------------------------------------

          Ground-State Mulliken Net Atomic Charges

     Atom                 Charge (a.u.)
  ----------------------------------------
      1 O                    -0.477058
      2 H                     0.238529
      3 H                     0.238529
  ----------------------------------------
  Sum of atomic charges =     0.000000

 -----------------------------------------------------------------
                    Cartesian Multipole Moments
 -----------------------------------------------------------------
    Charge (ESU x 10^10)
                 0.0000
    Dipole Moment (Debye)
         X      -0.0000      Y      -0.0000      Z      -2.0838
       Tot       2.0838
    Quadrupole Moments (Debye-Ang)
        XX      -4.2677     XY      -0.0000     YY      -7.1887
        XZ       0.0000     YZ       0.0000     ZZ      -6.0337
    Octopole Moments (Debye-Ang^2)
       XXX      -0.0000    XXY      -0.0000    XYY      -0.0000
       YYY       0.0000    XXZ      -1.2527    XYZ       0.0000
       YYZ      -0.3221    XZZ      -0.0000    YZZ      -0.0000
       ZZZ      -1.2218
    Hexadecapole Moments (Debye-Ang^3)
      XXXX      -5.9709   XXXY      -0.0000   XXYY      -2.1522
      XYYY      -0.0000   YYYY      -5.2659   XXXZ       0.0000
      XXYZ       0.0000   XYYZ       0.0000   YYYZ      -0.0000
      XXZZ      -1.7081   XYZZ      -0.0000   YYZZ      -1.9858
      XZZZ       0.0000   YZZZ      -0.0000   ZZZZ      -6.3134
 -----------------------------------------------------------------
 Calculating MO derivatives via CPSCF
    1     0    12    0.0536318  
    2     0    12    0.0108363  
    3     0    12    0.0007136  
    4     0    12    0.0000458  
    5    11     1    0.0000021  
    6    12     0    0.0000001  Converged
 Time for AOints: 0.1 s (CPU) 0.1 s (wall)
 ------------------------------------------------------------------------------
                     AOints        : Timing summary (seconds)
 ------------------------------------------------------------------------------
     job step          cpu (% of tot)      sys (% of tot)     wall (% of tot)
 ------------------------------------------------------------------------------
  AOints            0.8256E-01 ( 2.5)   0.1000E-05 ( 5.6)   0.9654E-01 ( 1.9)
 ------------------------------------------------------------------------------
   Grand Totals     0.3302E+01          0.1800E-04          0.5109E+01
 ------------------------------------------------------------------------------
 Polarizability Matrix (a.u.)
            1           2           3
    1  -7.6256745   0.0000000  -0.0000000
    2   0.0000000  -4.0455754  -0.0000000
    3  -0.0000000  -0.0000000  -5.8746634
 Calculating analytic Hessian of the SCF energy

 Direct stationary perturbation theory relativistic correction:

 rels  =       0.030054905232
 relv  =      -0.111877292691
 rel2e =       0.030618063821
 E_rel =      -0.051204323637

 **********************************************************************
 **                                                                  **
 **                       VIBRATIONAL ANALYSIS                       **
 **                       --------------------                       **
 **                                                                  **
 **        VIBRATIONAL FREQUENCIES (CM**-1) AND NORMAL MODES         **
 **     FORCE CONSTANTS (mDYN/ANGSTROM) AND REDUCED MASSES (AMU)     **
 **                  INFRARED INTENSITIES (KM/MOL)                   **
 **                                                                  **
 **********************************************************************


 Mode:                 1                      2                      3
 Frequency:      1644.01                3840.54                3942.36
 Force Cnst:      1.7230                 9.0881                 9.9016
 Red. Mass:       1.0820                 1.0458                 1.0813
 IR Active:          YES                    YES                    YES
 IR Intens:       59.474                  6.010                 32.715
 Raman Active:       YES                    YES                    YES
               X      Y      Z        X      Y      Z        X      Y      Z
 O          0.000 -0.000 -0.070   -0.000 -0.000 -0.050   -0.070 -0.000 -0.000
 H         -0.431  0.000  0.558    0.582  0.000  0.399    0.556  0.000  0.435
 H          0.431  0.000  0.558   -0.582  0.000  0.399    0.556 -0.000 -0.435
 TransDip  -0.000 -0.000  0.247    0.000 -0.000  0.079    0.183  0.000  0.000

 STANDARD THERMODYNAMIC QUANTITIES AT   298.15 K  AND     1.00 ATM

   This Molecule has  0 Imaginary Frequencies
   Zero point vibrational energy:       13.476 kcal/mol

   Atom    1 Element O  Has Mass   15.99491
   Atom    2 Element H  Has Mass    1.00783
   Atom    3 Element H  Has Mass    1.00783
   Molecular Mass:    18.010570 amu
   Principal axes and moments of inertia in amu*Bohr^2:
                             1           2           3
    Eigenvalues --        2.24108     4.12391     6.36500
          X               1.00000     0.00000    -0.00000
          Y               0.00000     0.00000     1.00000
          Z              -0.00000     1.00000    -0.00000
   Rotational Symmetry Number is   2
   The Molecule is an Asymmetric Top
   Translational Enthalpy:        0.889 kcal/mol
   Rotational Enthalpy:           0.889 kcal/mol
   Vibrational Enthalpy:         13.478 kcal/mol
   gas constant (RT):             0.592 kcal/mol
   Translational Entropy:        34.608  cal/mol.K
   Rotational Entropy:           10.474  cal/mol.K
   Vibrational Entropy:           0.006  cal/mol.K

   Total Enthalpy:               15.848 kcal/mol
   Total Entropy:                45.088  cal/mol.K
 Total job time:  9.32s(wall), 6.85s(cpu) 
 Mon Nov 15 11:12:18 2021

        *************************************************************
        *                                                           *
        *  Thank you very much for using Q-Chem.  Have a nice day.  *
        *                                                           *
        *************************************************************


